********************************************************************************
*                       GENERAL UTILITY LATTICE PROGRAM                        *
*                                 Julian Gale                                  *
*                       Curtin Institute for Computation                       *
*                    School of Molecular and Life Sciences                     *
*                    Curtin University, Western Australia                      *
********************************************************************************
* Version = 6.0.0 * Last modified =  19th November 2021                        *
********************************************************************************
*  optimise     - perform optimisation run                                     *
*  conv         - constant volume calculation                                  *
*  unfix        - do not fix one atom during optimisation                      *
*  molmec       - molecule option activated, Coulomb subtract 1-2/1-3 terms    *
*  noautobond   - do not compute bonds based on covalent radii                 *
*  unit         - approximate initial Hessian by unit diagonal matrix          *
*  conjugate    - use conjugate gradients minimiser                            *
*  positive     - ensure Hessian acts as positive-definite in Newton-Raphson   *
********************************************************************************

  Job Started  at 21:33.33 12th March      2024                               

  Number of CPUs =     1


  Total number of configurations input =      1

********************************************************************************
*  Input for Configuration =   1                                               *
********************************************************************************

  Formula = Zn32O104C192H96                                             

  Number of irreducible atoms/shells =     424


  Total number atoms/shells =     424

  Dimensionality = 3               :  Bulk   



  Cartesian lattice vectors (Angstroms) :

       25.832000    0.000000    0.000000
        0.000000   25.832000    0.000000
        0.000000    0.000000   25.832000

  Cell parameters (Angstroms/Degrees):

  a =      25.8320    alpha =  90.0000
  b =      25.8320    beta  =  90.0000
  c =      25.8320    gamma =  90.0000

  Initial cell volume =       17237.492730 Angs**3

  Temperature of configuration =   0.00     K 

  Pressure of configuration =         0.000 GPa 

  Fractional coordinates of asymmetric unit :

--------------------------------------------------------------------------------
   No.  Atomic       x           y          z         Charge      Occupancy
        Label      (Frac)      (Frac)     (Frac)        (e)         (Frac)  
--------------------------------------------------------------------------------
      1 Zn1   c    0.293380 *  0.206620 *  0.206620 *   0.00000    1.000000    
      2 O2    c    0.281870 *  0.218100 *  0.134000 *   0.00000    1.000000    
      3 C3    c    0.250000 *  0.250000 *  0.111300 *   0.00000    1.000000    
      4 C3    c    0.250000 *  0.250000 *  0.053800 *   0.00000    1.000000    
      5 C3    c    0.217100 *  0.282900 *  0.026900 *   0.00000    1.000000    
      6 H4    c    0.195100 *  0.304900 *  0.044800 *   0.00000    1.000000    
      7 C3    c    0.217100 *  0.282900 *  0.973100 *   0.00000    1.000000    
      8 H4    c    0.195100 *  0.304900 *  0.955200 *   0.00000    1.000000    
      9 C3    c    0.250000 *  0.250000 *  0.946200 *   0.00000    1.000000    
     10 C3    c    0.282900 *  0.217100 *  0.973100 *   0.00000    1.000000    
     11 H4    c    0.304900 *  0.195100 *  0.955200 *   0.00000    1.000000    
     12 C3    c    0.282900 *  0.217100 *  0.026900 *   0.00000    1.000000    
     13 H4    c    0.304900 *  0.195100 *  0.044800 *   0.00000    1.000000    
     14 C3    c    0.250000 *  0.250000 *  0.888700 *   0.00000    1.000000    
     15 O2    c    0.218100 *  0.281870 *  0.866000 *   0.00000    1.000000    
     16 Zn1   c    0.206620 *  0.293380 *  0.793380 *   0.00000    1.000000    
     17 O2    c    0.134000 *  0.281900 *  0.781870 *   0.00000    1.000000    
     18 C3    c    0.111300 *  0.250000 *  0.750000 *   0.00000    1.000000    
     19 C3    c    0.053800 *  0.250000 *  0.750000 *   0.00000    1.000000    
     20 C3    c    0.026900 *  0.217100 *  0.717100 *   0.00000    1.000000    
     21 H4    c    0.044800 *  0.195100 *  0.695100 *   0.00000    1.000000    
     22 C3    c    0.973100 *  0.217100 *  0.717100 *   0.00000    1.000000    
     23 H4    c    0.955200 *  0.195100 *  0.695100 *   0.00000    1.000000    
     24 C3    c    0.946200 *  0.250000 *  0.750000 *   0.00000    1.000000    
     25 C3    c    0.973100 *  0.282900 *  0.782900 *   0.00000    1.000000    
     26 H4    c    0.955200 *  0.304900 *  0.804900 *   0.00000    1.000000    
     27 C3    c    0.026900 *  0.282900 *  0.782900 *   0.00000    1.000000    
     28 H4    c    0.044800 *  0.304900 *  0.804900 *   0.00000    1.000000    
     29 C3    c    0.888700 *  0.250000 *  0.750000 *   0.00000    1.000000    
     30 O2    c    0.866000 *  0.218130 *  0.718100 *   0.00000    1.000000    
     31 Zn1   c    0.793380 *  0.206620 *  0.706620 *   0.00000    1.000000    
     32 O2    c    0.781870 *  0.218100 *  0.634000 *   0.00000    1.000000    
     33 C3    c    0.750000 *  0.250000 *  0.611300 *   0.00000    1.000000    
     34 C3    c    0.750000 *  0.250000 *  0.553800 *   0.00000    1.000000    
     35 C3    c    0.717100 *  0.282900 *  0.526900 *   0.00000    1.000000    
     36 H4    c    0.695100 *  0.304900 *  0.544800 *   0.00000    1.000000    
     37 C3    c    0.717100 *  0.282900 *  0.473100 *   0.00000    1.000000    
     38 H4    c    0.695100 *  0.304900 *  0.455200 *   0.00000    1.000000    
     39 C3    c    0.750000 *  0.250000 *  0.446200 *   0.00000    1.000000    
     40 C3    c    0.782900 *  0.217100 *  0.473100 *   0.00000    1.000000    
     41 H4    c    0.804900 *  0.195100 *  0.455200 *   0.00000    1.000000    
     42 C3    c    0.782900 *  0.217100 *  0.526900 *   0.00000    1.000000    
     43 H4    c    0.804900 *  0.195100 *  0.544800 *   0.00000    1.000000    
     44 C3    c    0.750000 *  0.250000 *  0.388700 *   0.00000    1.000000    
     45 O2    c    0.781900 *  0.218130 *  0.366000 *   0.00000    1.000000    
     46 Zn1   c    0.793380 *  0.206620 *  0.293380 *   0.00000    1.000000    
     47 O2    c    0.781870 *  0.134000 *  0.281900 *   0.00000    1.000000    
     48 C3    c    0.750000 *  0.111300 *  0.250000 *   0.00000    1.000000    
     49 C3    c    0.750000 *  0.053800 *  0.250000 *   0.00000    1.000000    
     50 C3    c    0.717100 *  0.026900 *  0.217100 *   0.00000    1.000000    
     51 H4    c    0.695100 *  0.044800 *  0.195100 *   0.00000    1.000000    
     52 C3    c    0.717100 *  0.973100 *  0.217100 *   0.00000    1.000000    
     53 H4    c    0.695100 *  0.955200 *  0.195100 *   0.00000    1.000000    
     54 C3    c    0.750000 *  0.946200 *  0.250000 *   0.00000    1.000000    
     55 C3    c    0.782900 *  0.973100 *  0.282900 *   0.00000    1.000000    
     56 H4    c    0.804900 *  0.955200 *  0.304900 *   0.00000    1.000000    
     57 C3    c    0.782900 *  0.026900 *  0.282900 *   0.00000    1.000000    
     58 H4    c    0.804900 *  0.044800 *  0.304900 *   0.00000    1.000000    
     59 C3    c    0.750000 *  0.888700 *  0.250000 *   0.00000    1.000000    
     60 O2    c    0.718100 *  0.866000 *  0.218130 *   0.00000    1.000000    
     61 Zn1   c    0.706620 *  0.793380 *  0.206620 *   0.00000    1.000000    
     62 O2    c    0.634000 *  0.781870 *  0.218100 *   0.00000    1.000000    
     63 C3    c    0.611300 *  0.750000 *  0.250000 *   0.00000    1.000000    
     64 C3    c    0.553800 *  0.750000 *  0.250000 *   0.00000    1.000000    
     65 C3    c    0.526900 *  0.717100 *  0.282900 *   0.00000    1.000000    
     66 H4    c    0.544800 *  0.695100 *  0.304900 *   0.00000    1.000000    
     67 C3    c    0.473100 *  0.717100 *  0.282900 *   0.00000    1.000000    
     68 H4    c    0.455200 *  0.695100 *  0.304900 *   0.00000    1.000000    
     69 C3    c    0.446200 *  0.750000 *  0.250000 *   0.00000    1.000000    
     70 C3    c    0.473100 *  0.782900 *  0.217100 *   0.00000    1.000000    
     71 H4    c    0.455200 *  0.804900 *  0.195100 *   0.00000    1.000000    
     72 C3    c    0.526900 *  0.782900 *  0.217100 *   0.00000    1.000000    
     73 H4    c    0.544800 *  0.804900 *  0.195100 *   0.00000    1.000000    
     74 C3    c    0.388700 *  0.750000 *  0.250000 *   0.00000    1.000000    
     75 O2    c    0.366000 *  0.781900 *  0.218130 *   0.00000    1.000000    
     76 Zn1   c    0.293380 *  0.793380 *  0.206620 *   0.00000    1.000000    
     77 O2    c    0.281870 *  0.866000 *  0.218100 *   0.00000    1.000000    
     78 C3    c    0.250000 *  0.888700 *  0.250000 *   0.00000    1.000000    
     79 C3    c    0.250000 *  0.946200 *  0.250000 *   0.00000    1.000000    
     80 C3    c    0.217100 *  0.973100 *  0.282900 *   0.00000    1.000000    
     81 H4    c    0.195100 *  0.955200 *  0.304900 *   0.00000    1.000000    
     82 C3    c    0.217100 *  0.026900 *  0.282900 *   0.00000    1.000000    
     83 H4    c    0.195100 *  0.044800 *  0.304900 *   0.00000    1.000000    
     84 C3    c    0.250000 *  0.053800 *  0.250000 *   0.00000    1.000000    
     85 C3    c    0.282900 *  0.026900 *  0.217100 *   0.00000    1.000000    
     86 H4    c    0.304900 *  0.044800 *  0.195100 *   0.00000    1.000000    
     87 C3    c    0.282900 *  0.973100 *  0.217100 *   0.00000    1.000000    
     88 H4    c    0.304900 *  0.955200 *  0.195100 *   0.00000    1.000000    
     89 C3    c    0.250000 *  0.111300 *  0.250000 *   0.00000    1.000000    
     90 O2    c    0.218100 *  0.134000 *  0.281870 *   0.00000    1.000000    
     91 Zn1   c    0.206620 *  0.206620 *  0.293380 *   0.00000    1.000000    
     92 O2    c    0.134000 *  0.218130 *  0.281900 *   0.00000    1.000000    
     93 C3    c    0.111300 *  0.250000 *  0.250000 *   0.00000    1.000000    
     94 C3    c    0.053800 *  0.250000 *  0.250000 *   0.00000    1.000000    
     95 C3    c    0.026900 *  0.217100 *  0.282900 *   0.00000    1.000000    
     96 H4    c    0.044800 *  0.195100 *  0.304900 *   0.00000    1.000000    
     97 C3    c    0.973100 *  0.217100 *  0.282900 *   0.00000    1.000000    
     98 H4    c    0.955200 *  0.195100 *  0.304900 *   0.00000    1.000000    
     99 C3    c    0.946200 *  0.250000 *  0.250000 *   0.00000    1.000000    
    100 C3    c    0.973100 *  0.282900 *  0.217100 *   0.00000    1.000000    
    101 H4    c    0.955200 *  0.304900 *  0.195100 *   0.00000    1.000000    
    102 C3    c    0.026900 *  0.282900 *  0.217100 *   0.00000    1.000000    
    103 H4    c    0.044800 *  0.304900 *  0.195100 *   0.00000    1.000000    
    104 C3    c    0.888700 *  0.250000 *  0.250000 *   0.00000    1.000000    
    105 O2    c    0.866000 *  0.218100 *  0.281870 *   0.00000    1.000000    
    106 O2    c    0.866000 *  0.281900 *  0.218130 *   0.00000    1.000000    
    107 Zn1   c    0.793380 *  0.293380 *  0.206620 *   0.00000    1.000000    
    108 O2    c    0.781900 *  0.281870 *  0.134000 *   0.00000    1.000000    
    109 C3    c    0.750000 *  0.250000 *  0.111300 *   0.00000    1.000000    
    110 C3    c    0.750000 *  0.250000 *  0.053800 *   0.00000    1.000000    
    111 C3    c    0.717100 *  0.217100 *  0.026900 *   0.00000    1.000000    
    112 H4    c    0.695100 *  0.195100 *  0.044800 *   0.00000    1.000000    
    113 C3    c    0.717100 *  0.217100 *  0.973100 *   0.00000    1.000000    
    114 H4    c    0.695100 *  0.195100 *  0.955200 *   0.00000    1.000000    
    115 C3    c    0.750000 *  0.250000 *  0.946200 *   0.00000    1.000000    
    116 C3    c    0.782900 *  0.282900 *  0.973100 *   0.00000    1.000000    
    117 H4    c    0.804900 *  0.304900 *  0.955200 *   0.00000    1.000000    
    118 C3    c    0.782900 *  0.282900 *  0.026900 *   0.00000    1.000000    
    119 H4    c    0.804900 *  0.304900 *  0.044800 *   0.00000    1.000000    
    120 C3    c    0.750000 *  0.250000 *  0.888700 *   0.00000    1.000000    
    121 O2    c    0.718130 *  0.218100 *  0.866000 *   0.00000    1.000000    
    122 Zn1   c    0.706620 *  0.206620 *  0.793380 *   0.00000    1.000000    
    123 O2    c    0.718100 *  0.134000 *  0.781870 *   0.00000    1.000000    
    124 C3    c    0.750000 *  0.111300 *  0.750000 *   0.00000    1.000000    
    125 C3    c    0.750000 *  0.053800 *  0.750000 *   0.00000    1.000000    
    126 C3    c    0.717100 *  0.026900 *  0.782900 *   0.00000    1.000000    
    127 H4    c    0.695100 *  0.044800 *  0.804900 *   0.00000    1.000000    
    128 C3    c    0.717100 *  0.973100 *  0.782900 *   0.00000    1.000000    
    129 H4    c    0.695100 *  0.955200 *  0.804900 *   0.00000    1.000000    
    130 C3    c    0.750000 *  0.946200 *  0.750000 *   0.00000    1.000000    
    131 C3    c    0.782900 *  0.973100 *  0.717100 *   0.00000    1.000000    
    132 H4    c    0.804900 *  0.955200 *  0.695100 *   0.00000    1.000000    
    133 C3    c    0.782900 *  0.026900 *  0.717100 *   0.00000    1.000000    
    134 H4    c    0.804900 *  0.044800 *  0.695100 *   0.00000    1.000000    
    135 C3    c    0.750000 *  0.888700 *  0.750000 *   0.00000    1.000000    
    136 O2    c    0.781870 *  0.866000 *  0.718100 *   0.00000    1.000000    
    137 Zn1   c    0.793380 *  0.793380 *  0.706620 *   0.00000    1.000000    
    138 O2    c    0.781900 *  0.781870 *  0.634000 *   0.00000    1.000000    
    139 C3    c    0.750000 *  0.750000 *  0.611300 *   0.00000    1.000000    
    140 C3    c    0.750000 *  0.750000 *  0.553800 *   0.00000    1.000000    
    141 C3    c    0.717100 *  0.717100 *  0.526900 *   0.00000    1.000000    
    142 H4    c    0.695100 *  0.695100 *  0.544800 *   0.00000    1.000000    
    143 C3    c    0.717100 *  0.717100 *  0.473100 *   0.00000    1.000000    
    144 H4    c    0.695100 *  0.695100 *  0.455200 *   0.00000    1.000000    
    145 C3    c    0.750000 *  0.750000 *  0.446200 *   0.00000    1.000000    
    146 C3    c    0.782900 *  0.782900 *  0.473100 *   0.00000    1.000000    
    147 H4    c    0.804900 *  0.804900 *  0.455200 *   0.00000    1.000000    
    148 C3    c    0.782900 *  0.782900 *  0.526900 *   0.00000    1.000000    
    149 H4    c    0.804900 *  0.804900 *  0.544800 *   0.00000    1.000000    
    150 C3    c    0.750000 *  0.750000 *  0.388700 *   0.00000    1.000000    
    151 O2    c    0.718130 *  0.718100 *  0.366000 *   0.00000    1.000000    
    152 Zn1   c    0.706620 *  0.706620 *  0.293380 *   0.00000    1.000000    
    153 O2    c    0.718100 *  0.634000 *  0.281870 *   0.00000    1.000000    
    154 C3    c    0.750000 *  0.611300 *  0.250000 *   0.00000    1.000000    
    155 C3    c    0.750000 *  0.553800 *  0.250000 *   0.00000    1.000000    
    156 C3    c    0.717100 *  0.526900 *  0.282900 *   0.00000    1.000000    
    157 H4    c    0.695100 *  0.544800 *  0.304900 *   0.00000    1.000000    
    158 C3    c    0.717100 *  0.473100 *  0.282900 *   0.00000    1.000000    
    159 H4    c    0.695100 *  0.455200 *  0.304900 *   0.00000    1.000000    
    160 C3    c    0.750000 *  0.446200 *  0.250000 *   0.00000    1.000000    
    161 C3    c    0.782900 *  0.473100 *  0.217100 *   0.00000    1.000000    
    162 H4    c    0.804900 *  0.455200 *  0.195100 *   0.00000    1.000000    
    163 C3    c    0.782900 *  0.526900 *  0.217100 *   0.00000    1.000000    
    164 H4    c    0.804900 *  0.544800 *  0.195100 *   0.00000    1.000000    
    165 C3    c    0.750000 *  0.388700 *  0.250000 *   0.00000    1.000000    
    166 O2    c    0.781870 *  0.366000 *  0.218100 *   0.00000    1.000000    
    167 O2    c    0.718130 *  0.366000 *  0.281900 *   0.00000    1.000000    
    168 Zn1   c    0.706620 *  0.293380 *  0.293380 *   0.00000    1.000000    
    169 O2    c    0.634000 *  0.281900 *  0.281870 *   0.00000    1.000000    
    170 C3    c    0.611300 *  0.250000 *  0.250000 *   0.00000    1.000000    
    171 C3    c    0.553800 *  0.250000 *  0.250000 *   0.00000    1.000000    
    172 C3    c    0.526900 *  0.217100 *  0.217100 *   0.00000    1.000000    
    173 H4    c    0.544800 *  0.195100 *  0.195100 *   0.00000    1.000000    
    174 C3    c    0.473100 *  0.217100 *  0.217100 *   0.00000    1.000000    
    175 H4    c    0.455200 *  0.195100 *  0.195100 *   0.00000    1.000000    
    176 C3    c    0.446200 *  0.250000 *  0.250000 *   0.00000    1.000000    
    177 C3    c    0.473100 *  0.282900 *  0.282900 *   0.00000    1.000000    
    178 H4    c    0.455200 *  0.304900 *  0.304900 *   0.00000    1.000000    
    179 C3    c    0.526900 *  0.282900 *  0.282900 *   0.00000    1.000000    
    180 H4    c    0.544800 *  0.304900 *  0.304900 *   0.00000    1.000000    
    181 C3    c    0.388700 *  0.250000 *  0.250000 *   0.00000    1.000000    
    182 O2    c    0.366000 *  0.218130 *  0.218100 *   0.00000    1.000000    
    183 O2    c    0.366000 *  0.281870 *  0.281900 *   0.00000    1.000000    
    184 Zn1   c    0.293380 *  0.293380 *  0.293380 *   0.00000    1.000000    
    185 O2    c    0.281870 *  0.281900 *  0.366000 *   0.00000    1.000000    
    186 C3    c    0.250000 *  0.250000 *  0.388700 *   0.00000    1.000000    
    187 C3    c    0.250000 *  0.250000 *  0.446200 *   0.00000    1.000000    
    188 C3    c    0.217100 *  0.217100 *  0.473100 *   0.00000    1.000000    
    189 H4    c    0.195100 *  0.195100 *  0.455200 *   0.00000    1.000000    
    190 C3    c    0.217100 *  0.217100 *  0.526900 *   0.00000    1.000000    
    191 H4    c    0.195100 *  0.195100 *  0.544800 *   0.00000    1.000000    
    192 C3    c    0.250000 *  0.250000 *  0.553800 *   0.00000    1.000000    
    193 C3    c    0.282900 *  0.282900 *  0.526900 *   0.00000    1.000000    
    194 H4    c    0.304900 *  0.304900 *  0.544800 *   0.00000    1.000000    
    195 C3    c    0.282900 *  0.282900 *  0.473100 *   0.00000    1.000000    
    196 H4    c    0.304900 *  0.304900 *  0.455200 *   0.00000    1.000000    
    197 C3    c    0.250000 *  0.250000 *  0.611300 *   0.00000    1.000000    
    198 O2    c    0.218100 *  0.218130 *  0.634000 *   0.00000    1.000000    
    199 Zn1   c    0.206620 *  0.206620 *  0.706620 *   0.00000    1.000000    
    200 O2    c    0.134000 *  0.218100 *  0.718130 *   0.00000    1.000000    
    201 O2    c    0.218130 *  0.134000 *  0.718100 *   0.00000    1.000000    
    202 C3    c    0.250000 *  0.111300 *  0.750000 *   0.00000    1.000000    
    203 C3    c    0.250000 *  0.053800 *  0.750000 *   0.00000    1.000000    
    204 C3    c    0.217100 *  0.026900 *  0.717100 *   0.00000    1.000000    
    205 H4    c    0.195100 *  0.044800 *  0.695100 *   0.00000    1.000000    
    206 C3    c    0.217100 *  0.973100 *  0.717100 *   0.00000    1.000000    
    207 H4    c    0.195100 *  0.955200 *  0.695100 *   0.00000    1.000000    
    208 C3    c    0.250000 *  0.946200 *  0.750000 *   0.00000    1.000000    
    209 C3    c    0.282900 *  0.973100 *  0.782900 *   0.00000    1.000000    
    210 H4    c    0.304900 *  0.955200 *  0.804900 *   0.00000    1.000000    
    211 C3    c    0.282900 *  0.026900 *  0.782900 *   0.00000    1.000000    
    212 H4    c    0.304900 *  0.044800 *  0.804900 *   0.00000    1.000000    
    213 C3    c    0.250000 *  0.888700 *  0.750000 *   0.00000    1.000000    
    214 O2    c    0.218100 *  0.866000 *  0.718130 *   0.00000    1.000000    
    215 Zn1   c    0.206620 *  0.793380 *  0.706620 *   0.00000    1.000000    
    216 O2    c    0.134000 *  0.781870 *  0.718100 *   0.00000    1.000000    
    217 C3    c    0.111300 *  0.750000 *  0.750000 *   0.00000    1.000000    
    218 C3    c    0.053800 *  0.750000 *  0.750000 *   0.00000    1.000000    
    219 C3    c    0.026900 *  0.717100 *  0.782900 *   0.00000    1.000000    
    220 H4    c    0.044800 *  0.695100 *  0.804900 *   0.00000    1.000000    
    221 C3    c    0.973100 *  0.717100 *  0.782900 *   0.00000    1.000000    
    222 H4    c    0.955200 *  0.695100 *  0.804900 *   0.00000    1.000000    
    223 C3    c    0.946200 *  0.750000 *  0.750000 *   0.00000    1.000000    
    224 C3    c    0.973100 *  0.782900 *  0.717100 *   0.00000    1.000000    
    225 H4    c    0.955200 *  0.804900 *  0.695100 *   0.00000    1.000000    
    226 C3    c    0.026900 *  0.782900 *  0.717100 *   0.00000    1.000000    
    227 H4    c    0.044800 *  0.804900 *  0.695100 *   0.00000    1.000000    
    228 C3    c    0.888700 *  0.750000 *  0.750000 *   0.00000    1.000000    
    229 O2    c    0.866000 *  0.781900 *  0.718130 *   0.00000    1.000000    
    230 O2    c    0.866000 *  0.718100 *  0.781870 *   0.00000    1.000000    
    231 Zn1   c    0.793380 *  0.706620 *  0.793380 *   0.00000    1.000000    
    232 O2    c    0.781900 *  0.718130 *  0.866000 *   0.00000    1.000000    
    233 C3    c    0.750000 *  0.750000 *  0.888700 *   0.00000    1.000000    
    234 C3    c    0.750000 *  0.750000 *  0.946200 *   0.00000    1.000000    
    235 C3    c    0.717100 *  0.782900 *  0.973100 *   0.00000    1.000000    
    236 H4    c    0.695100 *  0.804900 *  0.955200 *   0.00000    1.000000    
    237 C3    c    0.717100 *  0.782900 *  0.026900 *   0.00000    1.000000    
    238 H4    c    0.695100 *  0.804900 *  0.044800 *   0.00000    1.000000    
    239 C3    c    0.750000 *  0.750000 *  0.053800 *   0.00000    1.000000    
    240 C3    c    0.782900 *  0.717100 *  0.026900 *   0.00000    1.000000    
    241 H4    c    0.804900 *  0.695100 *  0.044800 *   0.00000    1.000000    
    242 C3    c    0.782900 *  0.717100 *  0.973100 *   0.00000    1.000000    
    243 H4    c    0.804900 *  0.695100 *  0.955200 *   0.00000    1.000000    
    244 C3    c    0.750000 *  0.750000 *  0.111300 *   0.00000    1.000000    
    245 O2    c    0.781870 *  0.718100 *  0.134000 *   0.00000    1.000000    
    246 Zn1   c    0.793380 *  0.706620 *  0.206620 *   0.00000    1.000000    
    247 O2    c    0.866000 *  0.718130 *  0.218100 *   0.00000    1.000000    
    248 C3    c    0.888700 *  0.750000 *  0.250000 *   0.00000    1.000000    
    249 C3    c    0.946200 *  0.750000 *  0.250000 *   0.00000    1.000000    
    250 C3    c    0.973100 *  0.717100 *  0.217100 *   0.00000    1.000000    
    251 H4    c    0.955200 *  0.695100 *  0.195100 *   0.00000    1.000000    
    252 C3    c    0.026900 *  0.717100 *  0.217100 *   0.00000    1.000000    
    253 H4    c    0.044800 *  0.695100 *  0.195100 *   0.00000    1.000000    
    254 C3    c    0.053800 *  0.750000 *  0.250000 *   0.00000    1.000000    
    255 C3    c    0.026900 *  0.782900 *  0.282900 *   0.00000    1.000000    
    256 H4    c    0.044800 *  0.804900 *  0.304900 *   0.00000    1.000000    
    257 C3    c    0.973100 *  0.782900 *  0.282900 *   0.00000    1.000000    
    258 H4    c    0.955200 *  0.804900 *  0.304900 *   0.00000    1.000000    
    259 C3    c    0.111300 *  0.750000 *  0.250000 *   0.00000    1.000000    
    260 O2    c    0.134000 *  0.718100 *  0.218130 *   0.00000    1.000000    
    261 Zn1   c    0.206620 *  0.706620 *  0.206620 *   0.00000    1.000000    
    262 O2    c    0.218100 *  0.718130 *  0.134000 *   0.00000    1.000000    
    263 C3    c    0.250000 *  0.750000 *  0.111300 *   0.00000    1.000000    
    264 C3    c    0.250000 *  0.750000 *  0.053800 *   0.00000    1.000000    
    265 C3    c    0.217100 *  0.717100 *  0.026900 *   0.00000    1.000000    
    266 H4    c    0.195100 *  0.695100 *  0.044800 *   0.00000    1.000000    
    267 C3    c    0.217100 *  0.717100 *  0.973100 *   0.00000    1.000000    
    268 H4    c    0.195100 *  0.695100 *  0.955200 *   0.00000    1.000000    
    269 C3    c    0.250000 *  0.750000 *  0.946200 *   0.00000    1.000000    
    270 C3    c    0.282900 *  0.782900 *  0.973100 *   0.00000    1.000000    
    271 H4    c    0.304900 *  0.804900 *  0.955200 *   0.00000    1.000000    
    272 C3    c    0.282900 *  0.782900 *  0.026900 *   0.00000    1.000000    
    273 H4    c    0.304900 *  0.804900 *  0.044800 *   0.00000    1.000000    
    274 C3    c    0.250000 *  0.750000 *  0.888700 *   0.00000    1.000000    
    275 O2    c    0.218130 *  0.718100 *  0.866000 *   0.00000    1.000000    
    276 Zn1   c    0.206620 *  0.706620 *  0.793380 *   0.00000    1.000000    
    277 O2    c    0.218100 *  0.634000 *  0.781870 *   0.00000    1.000000    
    278 C3    c    0.250000 *  0.611300 *  0.750000 *   0.00000    1.000000    
    279 C3    c    0.250000 *  0.553800 *  0.750000 *   0.00000    1.000000    
    280 C3    c    0.217100 *  0.526900 *  0.782900 *   0.00000    1.000000    
    281 H4    c    0.195100 *  0.544800 *  0.804900 *   0.00000    1.000000    
    282 C3    c    0.217100 *  0.473100 *  0.782900 *   0.00000    1.000000    
    283 H4    c    0.195100 *  0.455200 *  0.804900 *   0.00000    1.000000    
    284 C3    c    0.250000 *  0.446200 *  0.750000 *   0.00000    1.000000    
    285 C3    c    0.282900 *  0.473100 *  0.717100 *   0.00000    1.000000    
    286 H4    c    0.304900 *  0.455200 *  0.695100 *   0.00000    1.000000    
    287 C3    c    0.282900 *  0.526900 *  0.717100 *   0.00000    1.000000    
    288 H4    c    0.304900 *  0.544800 *  0.695100 *   0.00000    1.000000    
    289 C3    c    0.250000 *  0.388700 *  0.750000 *   0.00000    1.000000    
    290 O2    c    0.218130 *  0.366000 *  0.781900 *   0.00000    1.000000    
    291 O2    c    0.281870 *  0.366000 *  0.718100 *   0.00000    1.000000    
    292 Zn1   c    0.293380 *  0.293380 *  0.706620 *   0.00000    1.000000    
    293 O2    c    0.281900 *  0.281870 *  0.634000 *   0.00000    1.000000    
    294 O2    c    0.366000 *  0.281900 *  0.718130 *   0.00000    1.000000    
    295 C3    c    0.388700 *  0.250000 *  0.750000 *   0.00000    1.000000    
    296 C3    c    0.446200 *  0.250000 *  0.750000 *   0.00000    1.000000    
    297 C3    c    0.473100 *  0.282900 *  0.717100 *   0.00000    1.000000    
    298 H4    c    0.455200 *  0.304900 *  0.695100 *   0.00000    1.000000    
    299 C3    c    0.526900 *  0.282900 *  0.717100 *   0.00000    1.000000    
    300 H4    c    0.544800 *  0.304900 *  0.695100 *   0.00000    1.000000    
    301 C3    c    0.553800 *  0.250000 *  0.750000 *   0.00000    1.000000    
    302 C3    c    0.526900 *  0.217100 *  0.782900 *   0.00000    1.000000    
    303 H4    c    0.544800 *  0.195100 *  0.804900 *   0.00000    1.000000    
    304 C3    c    0.473100 *  0.217100 *  0.782900 *   0.00000    1.000000    
    305 H4    c    0.455200 *  0.195100 *  0.804900 *   0.00000    1.000000    
    306 C3    c    0.611300 *  0.250000 *  0.750000 *   0.00000    1.000000    
    307 O2    c    0.634000 *  0.218130 *  0.781900 *   0.00000    1.000000    
    308 O2    c    0.634000 *  0.281870 *  0.718100 *   0.00000    1.000000    
    309 Zn1   c    0.706620 *  0.293380 *  0.706620 *   0.00000    1.000000    
    310 O2    c    0.718130 *  0.281900 *  0.634000 *   0.00000    1.000000    
    311 O2    c    0.718100 *  0.366000 *  0.718130 *   0.00000    1.000000    
    312 C3    c    0.750000 *  0.388700 *  0.750000 *   0.00000    1.000000    
    313 C3    c    0.750000 *  0.446200 *  0.750000 *   0.00000    1.000000    
    314 C3    c    0.717100 *  0.473100 *  0.717100 *   0.00000    1.000000    
    315 H4    c    0.695100 *  0.455200 *  0.695100 *   0.00000    1.000000    
    316 C3    c    0.717100 *  0.526900 *  0.717100 *   0.00000    1.000000    
    317 H4    c    0.695100 *  0.544800 *  0.695100 *   0.00000    1.000000    
    318 C3    c    0.750000 *  0.553800 *  0.750000 *   0.00000    1.000000    
    319 C3    c    0.782900 *  0.526900 *  0.782900 *   0.00000    1.000000    
    320 H4    c    0.804900 *  0.544800 *  0.804900 *   0.00000    1.000000    
    321 C3    c    0.782900 *  0.473100 *  0.782900 *   0.00000    1.000000    
    322 H4    c    0.804900 *  0.455200 *  0.804900 *   0.00000    1.000000    
    323 C3    c    0.750000 *  0.611300 *  0.750000 *   0.00000    1.000000    
    324 O2    c    0.718130 *  0.634000 *  0.718100 *   0.00000    1.000000    
    325 Zn1   c    0.706620 *  0.706620 *  0.706620 *   0.00000    1.000000    
    326 O2    c    0.634000 *  0.718100 *  0.718130 *   0.00000    1.000000    
    327 C3    c    0.611300 *  0.750000 *  0.750000 *   0.00000    1.000000    
    328 C3    c    0.553800 *  0.750000 *  0.750000 *   0.00000    1.000000    
    329 C3    c    0.526900 *  0.717100 *  0.717100 *   0.00000    1.000000    
    330 H4    c    0.544800 *  0.695100 *  0.695100 *   0.00000    1.000000    
    331 C3    c    0.473100 *  0.717100 *  0.717100 *   0.00000    1.000000    
    332 H4    c    0.455200 *  0.695100 *  0.695100 *   0.00000    1.000000    
    333 C3    c    0.446200 *  0.750000 *  0.750000 *   0.00000    1.000000    
    334 C3    c    0.473100 *  0.782900 *  0.782900 *   0.00000    1.000000    
    335 H4    c    0.455200 *  0.804900 *  0.804900 *   0.00000    1.000000    
    336 C3    c    0.526900 *  0.782900 *  0.782900 *   0.00000    1.000000    
    337 H4    c    0.544800 *  0.804900 *  0.804900 *   0.00000    1.000000    
    338 C3    c    0.388700 *  0.750000 *  0.750000 *   0.00000    1.000000    
    339 O2    c    0.366000 *  0.718130 *  0.718100 *   0.00000    1.000000    
    340 Zn1   c    0.293380 *  0.706620 *  0.706620 *   0.00000    1.000000    
    341 O2    c    0.281870 *  0.718100 *  0.634000 *   0.00000    1.000000    
    342 C3    c    0.250000 *  0.750000 *  0.611300 *   0.00000    1.000000    
    343 C3    c    0.250000 *  0.750000 *  0.553800 *   0.00000    1.000000    
    344 C3    c    0.217100 *  0.782900 *  0.526900 *   0.00000    1.000000    
    345 H4    c    0.195100 *  0.804900 *  0.544800 *   0.00000    1.000000    
    346 C3    c    0.217100 *  0.782900 *  0.473100 *   0.00000    1.000000    
    347 H4    c    0.195100 *  0.804900 *  0.455200 *   0.00000    1.000000    
    348 C3    c    0.250000 *  0.750000 *  0.446200 *   0.00000    1.000000    
    349 C3    c    0.282900 *  0.717100 *  0.473100 *   0.00000    1.000000    
    350 H4    c    0.304900 *  0.695100 *  0.455200 *   0.00000    1.000000    
    351 C3    c    0.282900 *  0.717100 *  0.526900 *   0.00000    1.000000    
    352 H4    c    0.304900 *  0.695100 *  0.544800 *   0.00000    1.000000    
    353 C3    c    0.250000 *  0.750000 *  0.388700 *   0.00000    1.000000    
    354 O2    c    0.218100 *  0.781870 *  0.366000 *   0.00000    1.000000    
    355 Zn1   c    0.206620 *  0.793380 *  0.293380 *   0.00000    1.000000    
    356 O2    c    0.134000 *  0.781900 *  0.281870 *   0.00000    1.000000    
    357 O2    c    0.218130 *  0.866000 *  0.281900 *   0.00000    1.000000    
    358 O5    c    0.250000 *  0.750000 *  0.250000 *   0.00000    1.000000    
    359 Zn1   c    0.293380 *  0.706620 *  0.293380 *   0.00000    1.000000    
    360 O2    c    0.281900 *  0.718130 *  0.366000 *   0.00000    1.000000    
    361 O2    c    0.281870 *  0.634000 *  0.281900 *   0.00000    1.000000    
    362 C3    c    0.250000 *  0.611300 *  0.250000 *   0.00000    1.000000    
    363 C3    c    0.250000 *  0.553800 *  0.250000 *   0.00000    1.000000    
    364 C3    c    0.217100 *  0.526900 *  0.217100 *   0.00000    1.000000    
    365 H4    c    0.195100 *  0.544800 *  0.195100 *   0.00000    1.000000    
    366 C3    c    0.217100 *  0.473100 *  0.217100 *   0.00000    1.000000    
    367 H4    c    0.195100 *  0.455200 *  0.195100 *   0.00000    1.000000    
    368 C3    c    0.250000 *  0.446200 *  0.250000 *   0.00000    1.000000    
    369 C3    c    0.282900 *  0.473100 *  0.282900 *   0.00000    1.000000    
    370 H4    c    0.304900 *  0.455200 *  0.304900 *   0.00000    1.000000    
    371 C3    c    0.282900 *  0.526900 *  0.282900 *   0.00000    1.000000    
    372 H4    c    0.304900 *  0.544800 *  0.304900 *   0.00000    1.000000    
    373 C3    c    0.250000 *  0.388700 *  0.250000 *   0.00000    1.000000    
    374 O2    c    0.218100 *  0.366000 *  0.218130 *   0.00000    1.000000    
    375 Zn1   c    0.206620 *  0.293380 *  0.206620 *   0.00000    1.000000    
    376 O2    c    0.134000 *  0.281870 *  0.218100 *   0.00000    1.000000    
    377 O2    c    0.218130 *  0.281900 *  0.134000 *   0.00000    1.000000    
    378 O5    c    0.250000 *  0.250000 *  0.250000 *   0.00000    1.000000    
    379 O2    c    0.281900 *  0.366000 *  0.281870 *   0.00000    1.000000    
    380 O2    c    0.218130 *  0.634000 *  0.218100 *   0.00000    1.000000    
    381 O2    c    0.366000 *  0.718100 *  0.281870 *   0.00000    1.000000    
    382 O2    c    0.218130 *  0.781900 *  0.634000 *   0.00000    1.000000    
    383 O2    c    0.281900 *  0.634000 *  0.718130 *   0.00000    1.000000    
    384 O5    c    0.250000 *  0.750000 *  0.750000 *   0.00000    1.000000    
    385 Zn1   c    0.293380 *  0.793380 *  0.793380 *   0.00000    1.000000    
    386 O2    c    0.281900 *  0.866000 *  0.781870 *   0.00000    1.000000    
    387 O2    c    0.281870 *  0.781900 *  0.866000 *   0.00000    1.000000    
    388 O2    c    0.366000 *  0.781870 *  0.781900 *   0.00000    1.000000    
    389 O2    c    0.634000 *  0.781900 *  0.781870 *   0.00000    1.000000    
    390 Zn1   c    0.706620 *  0.793380 *  0.793380 *   0.00000    1.000000    
    391 O2    c    0.718130 *  0.866000 *  0.781900 *   0.00000    1.000000    
    392 O2    c    0.718100 *  0.781870 *  0.866000 *   0.00000    1.000000    
    393 O5    c    0.750000 *  0.750000 *  0.750000 *   0.00000    1.000000    
    394 O2    c    0.718100 *  0.718130 *  0.634000 *   0.00000    1.000000    
    395 O2    c    0.781870 *  0.634000 *  0.781900 *   0.00000    1.000000    
    396 O2    c    0.781900 *  0.366000 *  0.781870 *   0.00000    1.000000    
    397 Zn1   c    0.793380 *  0.293380 *  0.793380 *   0.00000    1.000000    
    398 O2    c    0.781870 *  0.281900 *  0.866000 *   0.00000    1.000000    
    399 O5    c    0.750000 *  0.250000 *  0.750000 *   0.00000    1.000000    
    400 O2    c    0.866000 *  0.281870 *  0.781900 *   0.00000    1.000000    
    401 O2    c    0.366000 *  0.218100 *  0.781870 *   0.00000    1.000000    
    402 Zn1   c    0.293380 *  0.206620 *  0.793380 *   0.00000    1.000000    
    403 O2    c    0.281900 *  0.218130 *  0.866000 *   0.00000    1.000000    
    404 O2    c    0.281870 *  0.134000 *  0.781900 *   0.00000    1.000000    
    405 O5    c    0.250000 *  0.250000 *  0.750000 *   0.00000    1.000000    
    406 O2    c    0.134000 *  0.718130 *  0.781900 *   0.00000    1.000000    
    407 O2    c    0.281900 *  0.781870 *  0.134000 *   0.00000    1.000000    
    408 O2    c    0.866000 *  0.781870 *  0.281900 *   0.00000    1.000000    
    409 Zn1   c    0.793380 *  0.793380 *  0.293380 *   0.00000    1.000000    
    410 O2    c    0.781900 *  0.866000 *  0.281870 *   0.00000    1.000000    
    411 O2    c    0.781870 *  0.781900 *  0.366000 *   0.00000    1.000000    
    412 O5    c    0.750000 *  0.750000 *  0.250000 *   0.00000    1.000000    
    413 O2    c    0.781900 *  0.634000 *  0.218130 *   0.00000    1.000000    
    414 O2    c    0.718130 *  0.781900 *  0.134000 *   0.00000    1.000000    
    415 O2    c    0.218130 *  0.218100 *  0.366000 *   0.00000    1.000000    
    416 O2    c    0.634000 *  0.218100 *  0.218130 *   0.00000    1.000000    
    417 Zn1   c    0.706620 *  0.206620 *  0.206620 *   0.00000    1.000000    
    418 O2    c    0.718100 *  0.218130 *  0.134000 *   0.00000    1.000000    
    419 O2    c    0.718130 *  0.134000 *  0.218100 *   0.00000    1.000000    
    420 O5    c    0.750000 *  0.250000 *  0.250000 *   0.00000    1.000000    
    421 O2    c    0.718100 *  0.281870 *  0.366000 *   0.00000    1.000000    
    422 O2    c    0.634000 *  0.718130 *  0.281900 *   0.00000    1.000000    
    423 O2    c    0.781900 *  0.134000 *  0.718130 *   0.00000    1.000000    
    424 O2    c    0.281900 *  0.134000 *  0.218130 *   0.00000    1.000000    
--------------------------------------------------------------------------------


  Initial Cartesian coordinates :

--------------------------------------------------------------------------------
   No.  Atomic        x           y           z          Charge   Occupancy
        Label       (Angs)      (Angs)      (Angs)        (e)       (Frac)  
--------------------------------------------------------------------------------
      1 Zn1   c     7.578592    5.337408    5.337408    0.000000    1.000000
      2 O2    c     7.281266    5.633959    3.461488    0.000000    1.000000
      3 C3    c     6.458000    6.458000    2.875102    0.000000    1.000000
      4 C3    c     6.458000    6.458000    1.389762    0.000000    1.000000
      5 C3    c     5.608127    7.307873    0.694881    0.000000    1.000000
      6 H4    c     5.039823    7.876177    1.157274    0.000000    1.000000
      7 C3    c     5.608127    7.307873   25.137119    0.000000    1.000000
      8 H4    c     5.039823    7.876177   24.674726    0.000000    1.000000
      9 C3    c     6.458000    6.458000   24.442238    0.000000    1.000000
     10 C3    c     7.307873    5.608127   25.137119    0.000000    1.000000
     11 H4    c     7.876177    5.039823   24.674726    0.000000    1.000000
     12 C3    c     7.307873    5.608127    0.694881    0.000000    1.000000
     13 H4    c     7.876177    5.039823    1.157274    0.000000    1.000000
     14 C3    c     6.458000    6.458000   22.956898    0.000000    1.000000
     15 O2    c     5.633959    7.281266   22.370512    0.000000    1.000000
     16 Zn1   c     5.337408    7.578592   20.494592    0.000000    1.000000
     17 O2    c     3.461488    7.282041   20.197266    0.000000    1.000000
     18 C3    c     2.875102    6.458000   19.374000    0.000000    1.000000
     19 C3    c     1.389762    6.458000   19.374000    0.000000    1.000000
     20 C3    c     0.694881    5.608127   18.524127    0.000000    1.000000
     21 H4    c     1.157274    5.039823   17.955823    0.000000    1.000000
     22 C3    c    25.137119    5.608127   18.524127    0.000000    1.000000
     23 H4    c    24.674726    5.039823   17.955823    0.000000    1.000000
     24 C3    c    24.442238    6.458000   19.374000    0.000000    1.000000
     25 C3    c    25.137119    7.307873   20.223873    0.000000    1.000000
     26 H4    c    24.674726    7.876177   20.792177    0.000000    1.000000
     27 C3    c     0.694881    7.307873   20.223873    0.000000    1.000000
     28 H4    c     1.157274    7.876177   20.792177    0.000000    1.000000
     29 C3    c    22.956898    6.458000   19.374000    0.000000    1.000000
     30 O2    c    22.370512    5.634734   18.549959    0.000000    1.000000
     31 Zn1   c    20.494592    5.337408   18.253408    0.000000    1.000000
     32 O2    c    20.197266    5.633959   16.377488    0.000000    1.000000
     33 C3    c    19.374000    6.458000   15.791102    0.000000    1.000000
     34 C3    c    19.374000    6.458000   14.305762    0.000000    1.000000
     35 C3    c    18.524127    7.307873   13.610881    0.000000    1.000000
     36 H4    c    17.955823    7.876177   14.073274    0.000000    1.000000
     37 C3    c    18.524127    7.307873   12.221119    0.000000    1.000000
     38 H4    c    17.955823    7.876177   11.758726    0.000000    1.000000
     39 C3    c    19.374000    6.458000   11.526238    0.000000    1.000000
     40 C3    c    20.223873    5.608127   12.221119    0.000000    1.000000
     41 H4    c    20.792177    5.039823   11.758726    0.000000    1.000000
     42 C3    c    20.223873    5.608127   13.610881    0.000000    1.000000
     43 H4    c    20.792177    5.039823   14.073274    0.000000    1.000000
     44 C3    c    19.374000    6.458000   10.040898    0.000000    1.000000
     45 O2    c    20.198041    5.634734    9.454512    0.000000    1.000000
     46 Zn1   c    20.494592    5.337408    7.578592    0.000000    1.000000
     47 O2    c    20.197266    3.461488    7.282041    0.000000    1.000000
     48 C3    c    19.374000    2.875102    6.458000    0.000000    1.000000
     49 C3    c    19.374000    1.389762    6.458000    0.000000    1.000000
     50 C3    c    18.524127    0.694881    5.608127    0.000000    1.000000
     51 H4    c    17.955823    1.157274    5.039823    0.000000    1.000000
     52 C3    c    18.524127   25.137119    5.608127    0.000000    1.000000
     53 H4    c    17.955823   24.674726    5.039823    0.000000    1.000000
     54 C3    c    19.374000   24.442238    6.458000    0.000000    1.000000
     55 C3    c    20.223873   25.137119    7.307873    0.000000    1.000000
     56 H4    c    20.792177   24.674726    7.876177    0.000000    1.000000
     57 C3    c    20.223873    0.694881    7.307873    0.000000    1.000000
     58 H4    c    20.792177    1.157274    7.876177    0.000000    1.000000
     59 C3    c    19.374000   22.956898    6.458000    0.000000    1.000000
     60 O2    c    18.549959   22.370512    5.634734    0.000000    1.000000
     61 Zn1   c    18.253408   20.494592    5.337408    0.000000    1.000000
     62 O2    c    16.377488   20.197266    5.633959    0.000000    1.000000
     63 C3    c    15.791102   19.374000    6.458000    0.000000    1.000000
     64 C3    c    14.305762   19.374000    6.458000    0.000000    1.000000
     65 C3    c    13.610881   18.524127    7.307873    0.000000    1.000000
     66 H4    c    14.073274   17.955823    7.876177    0.000000    1.000000
     67 C3    c    12.221119   18.524127    7.307873    0.000000    1.000000
     68 H4    c    11.758726   17.955823    7.876177    0.000000    1.000000
     69 C3    c    11.526238   19.374000    6.458000    0.000000    1.000000
     70 C3    c    12.221119   20.223873    5.608127    0.000000    1.000000
     71 H4    c    11.758726   20.792177    5.039823    0.000000    1.000000
     72 C3    c    13.610881   20.223873    5.608127    0.000000    1.000000
     73 H4    c    14.073274   20.792177    5.039823    0.000000    1.000000
     74 C3    c    10.040898   19.374000    6.458000    0.000000    1.000000
     75 O2    c     9.454512   20.198041    5.634734    0.000000    1.000000
     76 Zn1   c     7.578592   20.494592    5.337408    0.000000    1.000000
     77 O2    c     7.281266   22.370512    5.633959    0.000000    1.000000
     78 C3    c     6.458000   22.956898    6.458000    0.000000    1.000000
     79 C3    c     6.458000   24.442238    6.458000    0.000000    1.000000
     80 C3    c     5.608127   25.137119    7.307873    0.000000    1.000000
     81 H4    c     5.039823   24.674726    7.876177    0.000000    1.000000
     82 C3    c     5.608127    0.694881    7.307873    0.000000    1.000000
     83 H4    c     5.039823    1.157274    7.876177    0.000000    1.000000
     84 C3    c     6.458000    1.389762    6.458000    0.000000    1.000000
     85 C3    c     7.307873    0.694881    5.608127    0.000000    1.000000
     86 H4    c     7.876177    1.157274    5.039823    0.000000    1.000000
     87 C3    c     7.307873   25.137119    5.608127    0.000000    1.000000
     88 H4    c     7.876177   24.674726    5.039823    0.000000    1.000000
     89 C3    c     6.458000    2.875102    6.458000    0.000000    1.000000
     90 O2    c     5.633959    3.461488    7.281266    0.000000    1.000000
     91 Zn1   c     5.337408    5.337408    7.578592    0.000000    1.000000
     92 O2    c     3.461488    5.634734    7.282041    0.000000    1.000000
     93 C3    c     2.875102    6.458000    6.458000    0.000000    1.000000
     94 C3    c     1.389762    6.458000    6.458000    0.000000    1.000000
     95 C3    c     0.694881    5.608127    7.307873    0.000000    1.000000
     96 H4    c     1.157274    5.039823    7.876177    0.000000    1.000000
     97 C3    c    25.137119    5.608127    7.307873    0.000000    1.000000
     98 H4    c    24.674726    5.039823    7.876177    0.000000    1.000000
     99 C3    c    24.442238    6.458000    6.458000    0.000000    1.000000
    100 C3    c    25.137119    7.307873    5.608127    0.000000    1.000000
    101 H4    c    24.674726    7.876177    5.039823    0.000000    1.000000
    102 C3    c     0.694881    7.307873    5.608127    0.000000    1.000000
    103 H4    c     1.157274    7.876177    5.039823    0.000000    1.000000
    104 C3    c    22.956898    6.458000    6.458000    0.000000    1.000000
    105 O2    c    22.370512    5.633959    7.281266    0.000000    1.000000
    106 O2    c    22.370512    7.282041    5.634734    0.000000    1.000000
    107 Zn1   c    20.494592    7.578592    5.337408    0.000000    1.000000
    108 O2    c    20.198041    7.281266    3.461488    0.000000    1.000000
    109 C3    c    19.374000    6.458000    2.875102    0.000000    1.000000
    110 C3    c    19.374000    6.458000    1.389762    0.000000    1.000000
    111 C3    c    18.524127    5.608127    0.694881    0.000000    1.000000
    112 H4    c    17.955823    5.039823    1.157274    0.000000    1.000000
    113 C3    c    18.524127    5.608127   25.137119    0.000000    1.000000
    114 H4    c    17.955823    5.039823   24.674726    0.000000    1.000000
    115 C3    c    19.374000    6.458000   24.442238    0.000000    1.000000
    116 C3    c    20.223873    7.307873   25.137119    0.000000    1.000000
    117 H4    c    20.792177    7.876177   24.674726    0.000000    1.000000
    118 C3    c    20.223873    7.307873    0.694881    0.000000    1.000000
    119 H4    c    20.792177    7.876177    1.157274    0.000000    1.000000
    120 C3    c    19.374000    6.458000   22.956898    0.000000    1.000000
    121 O2    c    18.550734    5.633959   22.370512    0.000000    1.000000
    122 Zn1   c    18.253408    5.337408   20.494592    0.000000    1.000000
    123 O2    c    18.549959    3.461488   20.197266    0.000000    1.000000
    124 C3    c    19.374000    2.875102   19.374000    0.000000    1.000000
    125 C3    c    19.374000    1.389762   19.374000    0.000000    1.000000
    126 C3    c    18.524127    0.694881   20.223873    0.000000    1.000000
    127 H4    c    17.955823    1.157274   20.792177    0.000000    1.000000
    128 C3    c    18.524127   25.137119   20.223873    0.000000    1.000000
    129 H4    c    17.955823   24.674726   20.792177    0.000000    1.000000
    130 C3    c    19.374000   24.442238   19.374000    0.000000    1.000000
    131 C3    c    20.223873   25.137119   18.524127    0.000000    1.000000
    132 H4    c    20.792177   24.674726   17.955823    0.000000    1.000000
    133 C3    c    20.223873    0.694881   18.524127    0.000000    1.000000
    134 H4    c    20.792177    1.157274   17.955823    0.000000    1.000000
    135 C3    c    19.374000   22.956898   19.374000    0.000000    1.000000
    136 O2    c    20.197266   22.370512   18.549959    0.000000    1.000000
    137 Zn1   c    20.494592   20.494592   18.253408    0.000000    1.000000
    138 O2    c    20.198041   20.197266   16.377488    0.000000    1.000000
    139 C3    c    19.374000   19.374000   15.791102    0.000000    1.000000
    140 C3    c    19.374000   19.374000   14.305762    0.000000    1.000000
    141 C3    c    18.524127   18.524127   13.610881    0.000000    1.000000
    142 H4    c    17.955823   17.955823   14.073274    0.000000    1.000000
    143 C3    c    18.524127   18.524127   12.221119    0.000000    1.000000
    144 H4    c    17.955823   17.955823   11.758726    0.000000    1.000000
    145 C3    c    19.374000   19.374000   11.526238    0.000000    1.000000
    146 C3    c    20.223873   20.223873   12.221119    0.000000    1.000000
    147 H4    c    20.792177   20.792177   11.758726    0.000000    1.000000
    148 C3    c    20.223873   20.223873   13.610881    0.000000    1.000000
    149 H4    c    20.792177   20.792177   14.073274    0.000000    1.000000
    150 C3    c    19.374000   19.374000   10.040898    0.000000    1.000000
    151 O2    c    18.550734   18.549959    9.454512    0.000000    1.000000
    152 Zn1   c    18.253408   18.253408    7.578592    0.000000    1.000000
    153 O2    c    18.549959   16.377488    7.281266    0.000000    1.000000
    154 C3    c    19.374000   15.791102    6.458000    0.000000    1.000000
    155 C3    c    19.374000   14.305762    6.458000    0.000000    1.000000
    156 C3    c    18.524127   13.610881    7.307873    0.000000    1.000000
    157 H4    c    17.955823   14.073274    7.876177    0.000000    1.000000
    158 C3    c    18.524127   12.221119    7.307873    0.000000    1.000000
    159 H4    c    17.955823   11.758726    7.876177    0.000000    1.000000
    160 C3    c    19.374000   11.526238    6.458000    0.000000    1.000000
    161 C3    c    20.223873   12.221119    5.608127    0.000000    1.000000
    162 H4    c    20.792177   11.758726    5.039823    0.000000    1.000000
    163 C3    c    20.223873   13.610881    5.608127    0.000000    1.000000
    164 H4    c    20.792177   14.073274    5.039823    0.000000    1.000000
    165 C3    c    19.374000   10.040898    6.458000    0.000000    1.000000
    166 O2    c    20.197266    9.454512    5.633959    0.000000    1.000000
    167 O2    c    18.550734    9.454512    7.282041    0.000000    1.000000
    168 Zn1   c    18.253408    7.578592    7.578592    0.000000    1.000000
    169 O2    c    16.377488    7.282041    7.281266    0.000000    1.000000
    170 C3    c    15.791102    6.458000    6.458000    0.000000    1.000000
    171 C3    c    14.305762    6.458000    6.458000    0.000000    1.000000
    172 C3    c    13.610881    5.608127    5.608127    0.000000    1.000000
    173 H4    c    14.073274    5.039823    5.039823    0.000000    1.000000
    174 C3    c    12.221119    5.608127    5.608127    0.000000    1.000000
    175 H4    c    11.758726    5.039823    5.039823    0.000000    1.000000
    176 C3    c    11.526238    6.458000    6.458000    0.000000    1.000000
    177 C3    c    12.221119    7.307873    7.307873    0.000000    1.000000
    178 H4    c    11.758726    7.876177    7.876177    0.000000    1.000000
    179 C3    c    13.610881    7.307873    7.307873    0.000000    1.000000
    180 H4    c    14.073274    7.876177    7.876177    0.000000    1.000000
    181 C3    c    10.040898    6.458000    6.458000    0.000000    1.000000
    182 O2    c     9.454512    5.634734    5.633959    0.000000    1.000000
    183 O2    c     9.454512    7.281266    7.282041    0.000000    1.000000
    184 Zn1   c     7.578592    7.578592    7.578592    0.000000    1.000000
    185 O2    c     7.281266    7.282041    9.454512    0.000000    1.000000
    186 C3    c     6.458000    6.458000   10.040898    0.000000    1.000000
    187 C3    c     6.458000    6.458000   11.526238    0.000000    1.000000
    188 C3    c     5.608127    5.608127   12.221119    0.000000    1.000000
    189 H4    c     5.039823    5.039823   11.758726    0.000000    1.000000
    190 C3    c     5.608127    5.608127   13.610881    0.000000    1.000000
    191 H4    c     5.039823    5.039823   14.073274    0.000000    1.000000
    192 C3    c     6.458000    6.458000   14.305762    0.000000    1.000000
    193 C3    c     7.307873    7.307873   13.610881    0.000000    1.000000
    194 H4    c     7.876177    7.876177   14.073274    0.000000    1.000000
    195 C3    c     7.307873    7.307873   12.221119    0.000000    1.000000
    196 H4    c     7.876177    7.876177   11.758726    0.000000    1.000000
    197 C3    c     6.458000    6.458000   15.791102    0.000000    1.000000
    198 O2    c     5.633959    5.634734   16.377488    0.000000    1.000000
    199 Zn1   c     5.337408    5.337408   18.253408    0.000000    1.000000
    200 O2    c     3.461488    5.633959   18.550734    0.000000    1.000000
    201 O2    c     5.634734    3.461488   18.549959    0.000000    1.000000
    202 C3    c     6.458000    2.875102   19.374000    0.000000    1.000000
    203 C3    c     6.458000    1.389762   19.374000    0.000000    1.000000
    204 C3    c     5.608127    0.694881   18.524127    0.000000    1.000000
    205 H4    c     5.039823    1.157274   17.955823    0.000000    1.000000
    206 C3    c     5.608127   25.137119   18.524127    0.000000    1.000000
    207 H4    c     5.039823   24.674726   17.955823    0.000000    1.000000
    208 C3    c     6.458000   24.442238   19.374000    0.000000    1.000000
    209 C3    c     7.307873   25.137119   20.223873    0.000000    1.000000
    210 H4    c     7.876177   24.674726   20.792177    0.000000    1.000000
    211 C3    c     7.307873    0.694881   20.223873    0.000000    1.000000
    212 H4    c     7.876177    1.157274   20.792177    0.000000    1.000000
    213 C3    c     6.458000   22.956898   19.374000    0.000000    1.000000
    214 O2    c     5.633959   22.370512   18.550734    0.000000    1.000000
    215 Zn1   c     5.337408   20.494592   18.253408    0.000000    1.000000
    216 O2    c     3.461488   20.197266   18.549959    0.000000    1.000000
    217 C3    c     2.875102   19.374000   19.374000    0.000000    1.000000
    218 C3    c     1.389762   19.374000   19.374000    0.000000    1.000000
    219 C3    c     0.694881   18.524127   20.223873    0.000000    1.000000
    220 H4    c     1.157274   17.955823   20.792177    0.000000    1.000000
    221 C3    c    25.137119   18.524127   20.223873    0.000000    1.000000
    222 H4    c    24.674726   17.955823   20.792177    0.000000    1.000000
    223 C3    c    24.442238   19.374000   19.374000    0.000000    1.000000
    224 C3    c    25.137119   20.223873   18.524127    0.000000    1.000000
    225 H4    c    24.674726   20.792177   17.955823    0.000000    1.000000
    226 C3    c     0.694881   20.223873   18.524127    0.000000    1.000000
    227 H4    c     1.157274   20.792177   17.955823    0.000000    1.000000
    228 C3    c    22.956898   19.374000   19.374000    0.000000    1.000000
    229 O2    c    22.370512   20.198041   18.550734    0.000000    1.000000
    230 O2    c    22.370512   18.549959   20.197266    0.000000    1.000000
    231 Zn1   c    20.494592   18.253408   20.494592    0.000000    1.000000
    232 O2    c    20.198041   18.550734   22.370512    0.000000    1.000000
    233 C3    c    19.374000   19.374000   22.956898    0.000000    1.000000
    234 C3    c    19.374000   19.374000   24.442238    0.000000    1.000000
    235 C3    c    18.524127   20.223873   25.137119    0.000000    1.000000
    236 H4    c    17.955823   20.792177   24.674726    0.000000    1.000000
    237 C3    c    18.524127   20.223873    0.694881    0.000000    1.000000
    238 H4    c    17.955823   20.792177    1.157274    0.000000    1.000000
    239 C3    c    19.374000   19.374000    1.389762    0.000000    1.000000
    240 C3    c    20.223873   18.524127    0.694881    0.000000    1.000000
    241 H4    c    20.792177   17.955823    1.157274    0.000000    1.000000
    242 C3    c    20.223873   18.524127   25.137119    0.000000    1.000000
    243 H4    c    20.792177   17.955823   24.674726    0.000000    1.000000
    244 C3    c    19.374000   19.374000    2.875102    0.000000    1.000000
    245 O2    c    20.197266   18.549959    3.461488    0.000000    1.000000
    246 Zn1   c    20.494592   18.253408    5.337408    0.000000    1.000000
    247 O2    c    22.370512   18.550734    5.633959    0.000000    1.000000
    248 C3    c    22.956898   19.374000    6.458000    0.000000    1.000000
    249 C3    c    24.442238   19.374000    6.458000    0.000000    1.000000
    250 C3    c    25.137119   18.524127    5.608127    0.000000    1.000000
    251 H4    c    24.674726   17.955823    5.039823    0.000000    1.000000
    252 C3    c     0.694881   18.524127    5.608127    0.000000    1.000000
    253 H4    c     1.157274   17.955823    5.039823    0.000000    1.000000
    254 C3    c     1.389762   19.374000    6.458000    0.000000    1.000000
    255 C3    c     0.694881   20.223873    7.307873    0.000000    1.000000
    256 H4    c     1.157274   20.792177    7.876177    0.000000    1.000000
    257 C3    c    25.137119   20.223873    7.307873    0.000000    1.000000
    258 H4    c    24.674726   20.792177    7.876177    0.000000    1.000000
    259 C3    c     2.875102   19.374000    6.458000    0.000000    1.000000
    260 O2    c     3.461488   18.549959    5.634734    0.000000    1.000000
    261 Zn1   c     5.337408   18.253408    5.337408    0.000000    1.000000
    262 O2    c     5.633959   18.550734    3.461488    0.000000    1.000000
    263 C3    c     6.458000   19.374000    2.875102    0.000000    1.000000
    264 C3    c     6.458000   19.374000    1.389762    0.000000    1.000000
    265 C3    c     5.608127   18.524127    0.694881    0.000000    1.000000
    266 H4    c     5.039823   17.955823    1.157274    0.000000    1.000000
    267 C3    c     5.608127   18.524127   25.137119    0.000000    1.000000
    268 H4    c     5.039823   17.955823   24.674726    0.000000    1.000000
    269 C3    c     6.458000   19.374000   24.442238    0.000000    1.000000
    270 C3    c     7.307873   20.223873   25.137119    0.000000    1.000000
    271 H4    c     7.876177   20.792177   24.674726    0.000000    1.000000
    272 C3    c     7.307873   20.223873    0.694881    0.000000    1.000000
    273 H4    c     7.876177   20.792177    1.157274    0.000000    1.000000
    274 C3    c     6.458000   19.374000   22.956898    0.000000    1.000000
    275 O2    c     5.634734   18.549959   22.370512    0.000000    1.000000
    276 Zn1   c     5.337408   18.253408   20.494592    0.000000    1.000000
    277 O2    c     5.633959   16.377488   20.197266    0.000000    1.000000
    278 C3    c     6.458000   15.791102   19.374000    0.000000    1.000000
    279 C3    c     6.458000   14.305762   19.374000    0.000000    1.000000
    280 C3    c     5.608127   13.610881   20.223873    0.000000    1.000000
    281 H4    c     5.039823   14.073274   20.792177    0.000000    1.000000
    282 C3    c     5.608127   12.221119   20.223873    0.000000    1.000000
    283 H4    c     5.039823   11.758726   20.792177    0.000000    1.000000
    284 C3    c     6.458000   11.526238   19.374000    0.000000    1.000000
    285 C3    c     7.307873   12.221119   18.524127    0.000000    1.000000
    286 H4    c     7.876177   11.758726   17.955823    0.000000    1.000000
    287 C3    c     7.307873   13.610881   18.524127    0.000000    1.000000
    288 H4    c     7.876177   14.073274   17.955823    0.000000    1.000000
    289 C3    c     6.458000   10.040898   19.374000    0.000000    1.000000
    290 O2    c     5.634734    9.454512   20.198041    0.000000    1.000000
    291 O2    c     7.281266    9.454512   18.549959    0.000000    1.000000
    292 Zn1   c     7.578592    7.578592   18.253408    0.000000    1.000000
    293 O2    c     7.282041    7.281266   16.377488    0.000000    1.000000
    294 O2    c     9.454512    7.282041   18.550734    0.000000    1.000000
    295 C3    c    10.040898    6.458000   19.374000    0.000000    1.000000
    296 C3    c    11.526238    6.458000   19.374000    0.000000    1.000000
    297 C3    c    12.221119    7.307873   18.524127    0.000000    1.000000
    298 H4    c    11.758726    7.876177   17.955823    0.000000    1.000000
    299 C3    c    13.610881    7.307873   18.524127    0.000000    1.000000
    300 H4    c    14.073274    7.876177   17.955823    0.000000    1.000000
    301 C3    c    14.305762    6.458000   19.374000    0.000000    1.000000
    302 C3    c    13.610881    5.608127   20.223873    0.000000    1.000000
    303 H4    c    14.073274    5.039823   20.792177    0.000000    1.000000
    304 C3    c    12.221119    5.608127   20.223873    0.000000    1.000000
    305 H4    c    11.758726    5.039823   20.792177    0.000000    1.000000
    306 C3    c    15.791102    6.458000   19.374000    0.000000    1.000000
    307 O2    c    16.377488    5.634734   20.198041    0.000000    1.000000
    308 O2    c    16.377488    7.281266   18.549959    0.000000    1.000000
    309 Zn1   c    18.253408    7.578592   18.253408    0.000000    1.000000
    310 O2    c    18.550734    7.282041   16.377488    0.000000    1.000000
    311 O2    c    18.549959    9.454512   18.550734    0.000000    1.000000
    312 C3    c    19.374000   10.040898   19.374000    0.000000    1.000000
    313 C3    c    19.374000   11.526238   19.374000    0.000000    1.000000
    314 C3    c    18.524127   12.221119   18.524127    0.000000    1.000000
    315 H4    c    17.955823   11.758726   17.955823    0.000000    1.000000
    316 C3    c    18.524127   13.610881   18.524127    0.000000    1.000000
    317 H4    c    17.955823   14.073274   17.955823    0.000000    1.000000
    318 C3    c    19.374000   14.305762   19.374000    0.000000    1.000000
    319 C3    c    20.223873   13.610881   20.223873    0.000000    1.000000
    320 H4    c    20.792177   14.073274   20.792177    0.000000    1.000000
    321 C3    c    20.223873   12.221119   20.223873    0.000000    1.000000
    322 H4    c    20.792177   11.758726   20.792177    0.000000    1.000000
    323 C3    c    19.374000   15.791102   19.374000    0.000000    1.000000
    324 O2    c    18.550734   16.377488   18.549959    0.000000    1.000000
    325 Zn1   c    18.253408   18.253408   18.253408    0.000000    1.000000
    326 O2    c    16.377488   18.549959   18.550734    0.000000    1.000000
    327 C3    c    15.791102   19.374000   19.374000    0.000000    1.000000
    328 C3    c    14.305762   19.374000   19.374000    0.000000    1.000000
    329 C3    c    13.610881   18.524127   18.524127    0.000000    1.000000
    330 H4    c    14.073274   17.955823   17.955823    0.000000    1.000000
    331 C3    c    12.221119   18.524127   18.524127    0.000000    1.000000
    332 H4    c    11.758726   17.955823   17.955823    0.000000    1.000000
    333 C3    c    11.526238   19.374000   19.374000    0.000000    1.000000
    334 C3    c    12.221119   20.223873   20.223873    0.000000    1.000000
    335 H4    c    11.758726   20.792177   20.792177    0.000000    1.000000
    336 C3    c    13.610881   20.223873   20.223873    0.000000    1.000000
    337 H4    c    14.073274   20.792177   20.792177    0.000000    1.000000
    338 C3    c    10.040898   19.374000   19.374000    0.000000    1.000000
    339 O2    c     9.454512   18.550734   18.549959    0.000000    1.000000
    340 Zn1   c     7.578592   18.253408   18.253408    0.000000    1.000000
    341 O2    c     7.281266   18.549959   16.377488    0.000000    1.000000
    342 C3    c     6.458000   19.374000   15.791102    0.000000    1.000000
    343 C3    c     6.458000   19.374000   14.305762    0.000000    1.000000
    344 C3    c     5.608127   20.223873   13.610881    0.000000    1.000000
    345 H4    c     5.039823   20.792177   14.073274    0.000000    1.000000
    346 C3    c     5.608127   20.223873   12.221119    0.000000    1.000000
    347 H4    c     5.039823   20.792177   11.758726    0.000000    1.000000
    348 C3    c     6.458000   19.374000   11.526238    0.000000    1.000000
    349 C3    c     7.307873   18.524127   12.221119    0.000000    1.000000
    350 H4    c     7.876177   17.955823   11.758726    0.000000    1.000000
    351 C3    c     7.307873   18.524127   13.610881    0.000000    1.000000
    352 H4    c     7.876177   17.955823   14.073274    0.000000    1.000000
    353 C3    c     6.458000   19.374000   10.040898    0.000000    1.000000
    354 O2    c     5.633959   20.197266    9.454512    0.000000    1.000000
    355 Zn1   c     5.337408   20.494592    7.578592    0.000000    1.000000
    356 O2    c     3.461488   20.198041    7.281266    0.000000    1.000000
    357 O2    c     5.634734   22.370512    7.282041    0.000000    1.000000
    358 O5    c     6.458000   19.374000    6.458000    0.000000    1.000000
    359 Zn1   c     7.578592   18.253408    7.578592    0.000000    1.000000
    360 O2    c     7.282041   18.550734    9.454512    0.000000    1.000000
    361 O2    c     7.281266   16.377488    7.282041    0.000000    1.000000
    362 C3    c     6.458000   15.791102    6.458000    0.000000    1.000000
    363 C3    c     6.458000   14.305762    6.458000    0.000000    1.000000
    364 C3    c     5.608127   13.610881    5.608127    0.000000    1.000000
    365 H4    c     5.039823   14.073274    5.039823    0.000000    1.000000
    366 C3    c     5.608127   12.221119    5.608127    0.000000    1.000000
    367 H4    c     5.039823   11.758726    5.039823    0.000000    1.000000
    368 C3    c     6.458000   11.526238    6.458000    0.000000    1.000000
    369 C3    c     7.307873   12.221119    7.307873    0.000000    1.000000
    370 H4    c     7.876177   11.758726    7.876177    0.000000    1.000000
    371 C3    c     7.307873   13.610881    7.307873    0.000000    1.000000
    372 H4    c     7.876177   14.073274    7.876177    0.000000    1.000000
    373 C3    c     6.458000   10.040898    6.458000    0.000000    1.000000
    374 O2    c     5.633959    9.454512    5.634734    0.000000    1.000000
    375 Zn1   c     5.337408    7.578592    5.337408    0.000000    1.000000
    376 O2    c     3.461488    7.281266    5.633959    0.000000    1.000000
    377 O2    c     5.634734    7.282041    3.461488    0.000000    1.000000
    378 O5    c     6.458000    6.458000    6.458000    0.000000    1.000000
    379 O2    c     7.282041    9.454512    7.281266    0.000000    1.000000
    380 O2    c     5.634734   16.377488    5.633959    0.000000    1.000000
    381 O2    c     9.454512   18.549959    7.281266    0.000000    1.000000
    382 O2    c     5.634734   20.198041   16.377488    0.000000    1.000000
    383 O2    c     7.282041   16.377488   18.550734    0.000000    1.000000
    384 O5    c     6.458000   19.374000   19.374000    0.000000    1.000000
    385 Zn1   c     7.578592   20.494592   20.494592    0.000000    1.000000
    386 O2    c     7.282041   22.370512   20.197266    0.000000    1.000000
    387 O2    c     7.281266   20.198041   22.370512    0.000000    1.000000
    388 O2    c     9.454512   20.197266   20.198041    0.000000    1.000000
    389 O2    c    16.377488   20.198041   20.197266    0.000000    1.000000
    390 Zn1   c    18.253408   20.494592   20.494592    0.000000    1.000000
    391 O2    c    18.550734   22.370512   20.198041    0.000000    1.000000
    392 O2    c    18.549959   20.197266   22.370512    0.000000    1.000000
    393 O5    c    19.374000   19.374000   19.374000    0.000000    1.000000
    394 O2    c    18.549959   18.550734   16.377488    0.000000    1.000000
    395 O2    c    20.197266   16.377488   20.198041    0.000000    1.000000
    396 O2    c    20.198041    9.454512   20.197266    0.000000    1.000000
    397 Zn1   c    20.494592    7.578592   20.494592    0.000000    1.000000
    398 O2    c    20.197266    7.282041   22.370512    0.000000    1.000000
    399 O5    c    19.374000    6.458000   19.374000    0.000000    1.000000
    400 O2    c    22.370512    7.281266   20.198041    0.000000    1.000000
    401 O2    c     9.454512    5.633959   20.197266    0.000000    1.000000
    402 Zn1   c     7.578592    5.337408   20.494592    0.000000    1.000000
    403 O2    c     7.282041    5.634734   22.370512    0.000000    1.000000
    404 O2    c     7.281266    3.461488   20.198041    0.000000    1.000000
    405 O5    c     6.458000    6.458000   19.374000    0.000000    1.000000
    406 O2    c     3.461488   18.550734   20.198041    0.000000    1.000000
    407 O2    c     7.282041   20.197266    3.461488    0.000000    1.000000
    408 O2    c    22.370512   20.197266    7.282041    0.000000    1.000000
    409 Zn1   c    20.494592   20.494592    7.578592    0.000000    1.000000
    410 O2    c    20.198041   22.370512    7.281266    0.000000    1.000000
    411 O2    c    20.197266   20.198041    9.454512    0.000000    1.000000
    412 O5    c    19.374000   19.374000    6.458000    0.000000    1.000000
    413 O2    c    20.198041   16.377488    5.634734    0.000000    1.000000
    414 O2    c    18.550734   20.198041    3.461488    0.000000    1.000000
    415 O2    c     5.634734    5.633959    9.454512    0.000000    1.000000
    416 O2    c    16.377488    5.633959    5.634734    0.000000    1.000000
    417 Zn1   c    18.253408    5.337408    5.337408    0.000000    1.000000
    418 O2    c    18.549959    5.634734    3.461488    0.000000    1.000000
    419 O2    c    18.550734    3.461488    5.633959    0.000000    1.000000
    420 O5    c    19.374000    6.458000    6.458000    0.000000    1.000000
    421 O2    c    18.549959    7.281266    9.454512    0.000000    1.000000
    422 O2    c    16.377488   18.550734    7.282041    0.000000    1.000000
    423 O2    c    20.198041    3.461488   18.550734    0.000000    1.000000
    424 O2    c     7.282041    3.461488    5.634734    0.000000    1.000000
--------------------------------------------------------------------------------



  Molecule list generated from bond lengths :

  Total number of molecules =     1

--------------------------------------------------------------------------------
Molecule No./:  Atoms
Periodicity  :  
--------------------------------------------------------------------------------
     1  3    : Zn1  c     1 O2   c     2 C3   c     3 C3   c     4 C3   c     5
             : H4   c     6 C3   c     7 H4   c     8 C3   c     9 C3   c    10
             : H4   c    11 C3   c    12 H4   c    13 C3   c    14 O2   c    15
             : Zn1  c    16 O2   c    17 C3   c    18 C3   c    19 C3   c    20
             : H4   c    21 C3   c    22 H4   c    23 C3   c    24 C3   c    25
             : H4   c    26 C3   c    27 H4   c    28 C3   c    29 O2   c    30
             : Zn1  c    31 O2   c    32 C3   c    33 C3   c    34 C3   c    35
             : H4   c    36 C3   c    37 H4   c    38 C3   c    39 C3   c    40
             : H4   c    41 C3   c    42 H4   c    43 C3   c    44 O2   c    45
             : Zn1  c    46 O2   c    47 C3   c    48 C3   c    49 C3   c    50
             : H4   c    51 C3   c    52 H4   c    53 C3   c    54 C3   c    55
             : H4   c    56 C3   c    57 H4   c    58 C3   c    59 O2   c    60
             : Zn1  c    61 O2   c    62 C3   c    63 C3   c    64 C3   c    65
             : H4   c    66 C3   c    67 H4   c    68 C3   c    69 C3   c    70
             : H4   c    71 C3   c    72 H4   c    73 C3   c    74 O2   c    75
             : Zn1  c    76 O2   c    77 C3   c    78 C3   c    79 C3   c    80
             : H4   c    81 C3   c    82 H4   c    83 C3   c    84 C3   c    85
             : H4   c    86 C3   c    87 H4   c    88 C3   c    89 O2   c    90
             : Zn1  c    91 O2   c    92 C3   c    93 C3   c    94 C3   c    95
             : H4   c    96 C3   c    97 H4   c    98 C3   c    99 C3   c   100
             : H4   c   101 C3   c   102 H4   c   103 C3   c   104 O2   c   105
             : O2   c   106 Zn1  c   107 O2   c   108 C3   c   109 C3   c   110
             : C3   c   111 H4   c   112 C3   c   113 H4   c   114 C3   c   115
             : C3   c   116 H4   c   117 C3   c   118 H4   c   119 C3   c   120
             : O2   c   121 Zn1  c   122 O2   c   123 C3   c   124 C3   c   125
             : C3   c   126 H4   c   127 C3   c   128 H4   c   129 C3   c   130
             : C3   c   131 H4   c   132 C3   c   133 H4   c   134 C3   c   135
             : O2   c   136 Zn1  c   137 O2   c   138 C3   c   139 C3   c   140
             : C3   c   141 H4   c   142 C3   c   143 H4   c   144 C3   c   145
             : C3   c   146 H4   c   147 C3   c   148 H4   c   149 C3   c   150
             : O2   c   151 Zn1  c   152 O2   c   153 C3   c   154 C3   c   155
             : C3   c   156 H4   c   157 C3   c   158 H4   c   159 C3   c   160
             : C3   c   161 H4   c   162 C3   c   163 H4   c   164 C3   c   165
             : O2   c   166 O2   c   167 Zn1  c   168 O2   c   169 C3   c   170
             : C3   c   171 C3   c   172 H4   c   173 C3   c   174 H4   c   175
             : C3   c   176 C3   c   177 H4   c   178 C3   c   179 H4   c   180
             : C3   c   181 O2   c   182 O2   c   183 Zn1  c   184 O2   c   185
             : C3   c   186 C3   c   187 C3   c   188 H4   c   189 C3   c   190
             : H4   c   191 C3   c   192 C3   c   193 H4   c   194 C3   c   195
             : H4   c   196 C3   c   197 O2   c   198 Zn1  c   199 O2   c   200
             : O2   c   201 C3   c   202 C3   c   203 C3   c   204 H4   c   205
             : C3   c   206 H4   c   207 C3   c   208 C3   c   209 H4   c   210
             : C3   c   211 H4   c   212 C3   c   213 O2   c   214 Zn1  c   215
             : O2   c   216 C3   c   217 C3   c   218 C3   c   219 H4   c   220
             : C3   c   221 H4   c   222 C3   c   223 C3   c   224 H4   c   225
             : C3   c   226 H4   c   227 C3   c   228 O2   c   229 O2   c   230
             : Zn1  c   231 O2   c   232 C3   c   233 C3   c   234 C3   c   235
             : H4   c   236 C3   c   237 H4   c   238 C3   c   239 C3   c   240
             : H4   c   241 C3   c   242 H4   c   243 C3   c   244 O2   c   245
             : Zn1  c   246 O2   c   247 C3   c   248 C3   c   249 C3   c   250
             : H4   c   251 C3   c   252 H4   c   253 C3   c   254 C3   c   255
             : H4   c   256 C3   c   257 H4   c   258 C3   c   259 O2   c   260
             : Zn1  c   261 O2   c   262 C3   c   263 C3   c   264 C3   c   265
             : H4   c   266 C3   c   267 H4   c   268 C3   c   269 C3   c   270
             : H4   c   271 C3   c   272 H4   c   273 C3   c   274 O2   c   275
             : Zn1  c   276 O2   c   277 C3   c   278 C3   c   279 C3   c   280
             : H4   c   281 C3   c   282 H4   c   283 C3   c   284 C3   c   285
             : H4   c   286 C3   c   287 H4   c   288 C3   c   289 O2   c   290
             : O2   c   291 Zn1  c   292 O2   c   293 O2   c   294 C3   c   295
             : C3   c   296 C3   c   297 H4   c   298 C3   c   299 H4   c   300
             : C3   c   301 C3   c   302 H4   c   303 C3   c   304 H4   c   305
             : C3   c   306 O2   c   307 O2   c   308 Zn1  c   309 O2   c   310
             : O2   c   311 C3   c   312 C3   c   313 C3   c   314 H4   c   315
             : C3   c   316 H4   c   317 C3   c   318 C3   c   319 H4   c   320
             : C3   c   321 H4   c   322 C3   c   323 O2   c   324 Zn1  c   325
             : O2   c   326 C3   c   327 C3   c   328 C3   c   329 H4   c   330
             : C3   c   331 H4   c   332 C3   c   333 C3   c   334 H4   c   335
             : C3   c   336 H4   c   337 C3   c   338 O2   c   339 Zn1  c   340
             : O2   c   341 C3   c   342 C3   c   343 C3   c   344 H4   c   345
             : C3   c   346 H4   c   347 C3   c   348 C3   c   349 H4   c   350
             : C3   c   351 H4   c   352 C3   c   353 O2   c   354 Zn1  c   355
             : O2   c   356 O2   c   357 O5   c   358 Zn1  c   359 O2   c   360
             : O2   c   361 C3   c   362 C3   c   363 C3   c   364 H4   c   365
             : C3   c   366 H4   c   367 C3   c   368 C3   c   369 H4   c   370
             : C3   c   371 H4   c   372 C3   c   373 O2   c   374 Zn1  c   375
             : O2   c   376 O2   c   377 O5   c   378 O2   c   379 O2   c   380
             : O2   c   381 O2   c   382 O2   c   383 O5   c   384 Zn1  c   385
             : O2   c   386 O2   c   387 O2   c   388 O2   c   389 Zn1  c   390
             : O2   c   391 O2   c   392 O5   c   393 O2   c   394 O2   c   395
             : O2   c   396 Zn1  c   397 O2   c   398 O5   c   399 O2   c   400
             : O2   c   401 Zn1  c   402 O2   c   403 O2   c   404 O5   c   405
             : O2   c   406 O2   c   407 O2   c   408 Zn1  c   409 O2   c   410
             : O2   c   411 O5   c   412 O2   c   413 O2   c   414 O2   c   415
             : O2   c   416 Zn1  c   417 O2   c   418 O2   c   419 O5   c   420
             : O2   c   421 O2   c   422 O2   c   423 O2   c   424
--------------------------------------------------------------------------------


********************************************************************************
*  General input information                                                   *
********************************************************************************

  Species output for all configurations : 

--------------------------------------------------------------------------------
  Species    Type    Atomic    Atomic    Charge       Radii (Angs)     Library
                     Number     Mass       (e)     Cova   Ionic  VDW   Symbol
--------------------------------------------------------------------------------
    Zn1      Core       30      65.39   0.000000   1.450  0.000  2.160 Zn3f2    
    O2       Core        8      16.00   0.000000   0.730  0.000  1.360 O_2      
    C3       Core        6      12.01   0.000000   0.770  0.000  1.530 C_R      
    H4       Core        1       1.01   0.000000   0.370  0.000  1.080 H_       
    O5       Core        8      16.00   0.000000   0.730  0.000  1.360 O_3_f    
--------------------------------------------------------------------------------


  Universal Force Field (UFF) species output: 

--------------------------------------------------------------------------------
  Species    Type    Radius    Theta    Distance    Energy     Zeta     Zeff    
                     (Ang)   (degrees)   (Ang)       (eV)               (e)     
--------------------------------------------------------------------------------
    H4       Core    0.3540   180.000     2.8860    0.0019   12.0000   0.7120
    C3       Core    0.7290   120.000     3.8510    0.0046   12.7300   1.9120
    O2       Core    0.6340   120.000     3.5000    0.0026   14.0850   2.2998
    O5       Core    0.6340   109.471     3.5000    0.0026   14.0850   2.2998
    Zn1      Core    1.2400   109.471     2.7630    0.0054   12.0000   1.3084
--------------------------------------------------------------------------------


  Lattice summation method               =    Ewald          (3-D)
                                         =    Parry          (2-D)
                                         =    Saunders et al (1-D)
  Accuracy factor for lattice sums       =   12.000


  Analytic derivatives to be used

  Time limit = Infinity

  Maximum range for interatomic potentials =    100000.000000 Angstroms

  General interatomic potentials :

--------------------------------------------------------------------------------
Atom  Types   Potential      Parameter       Value         Units   Cutoffs(Ang)
  1     2                                                            Min /  Max 
--------------------------------------------------------------------------------
Zn1  c Zn1  c Lennard       Lennard-Jones A  1064.4517    eV*Ang^m  3Bond 10.000
                            Lennard-Jones B  4.7848756    eV*Ang^n  
[...]
    171 C3    c       0.054906     -0.041757      0.062401      0.000000
    172 C3    c       0.016058      0.003770     -0.006053      0.000000
    173 H4    c      -0.012743      0.011505     -0.017054      0.000000
    174 C3    c       0.024497     -0.033777     -0.033565      0.000000
    175 H4    c      -0.060484     -0.025330     -0.026440      0.000000
    176 C3    c       0.011057     -0.009616     -0.039477      0.000000
    177 C3    c      -0.016207      0.083804      0.064780      0.000000
    178 H4    c      -0.015616      0.022687      0.017505      0.000000
    179 C3    c      -0.008041      0.006294     -0.039395      0.000000
    180 H4    c       0.004686     -0.000939     -0.002894      0.000000
    181 C3    c      -0.026718      0.044464      0.057240      0.000000
    182 O2    c       0.072713     -0.062418     -0.055644      0.000000
    183 O2    c       0.088160     -0.010738      0.014081      0.000000
    184 Zn1   c      -0.009182      0.001559      0.121233      0.000000
    185 O2    c       0.069412      0.071933      0.011652      0.000000
    186 C3    c      -0.003463     -0.017274     -0.092355      0.000000
    187 C3    c       0.065156     -0.020657     -0.206128      0.000000
    188 C3    c      -0.088637      0.017962      0.059028      0.000000
    189 H4    c      -0.016344      0.005526     -0.039952      0.000000
    190 C3    c       0.013069     -0.038800      0.050482      0.000000
    191 H4    c      -0.003449     -0.002925     -0.005530      0.000000
    192 C3    c      -0.022176     -0.050739     -0.069850      0.000000
    193 C3    c      -0.001101      0.039376      0.145996      0.000000
    194 H4    c       0.008456      0.053912     -0.013515      0.000000
    195 C3    c      -0.000941     -0.026279     -0.060557      0.000000
    196 H4    c       0.006776      0.012162     -0.025066      0.000000
    197 C3    c      -0.001186      0.006685      0.007645      0.000000
    198 O2    c       0.004022     -0.034628      0.027340      0.000000
    199 Zn1   c       0.001154     -0.003873      0.022003      0.000000
    200 O2    c      -0.010071     -0.110641     -0.100595      0.000000
    201 O2    c      -0.132499     -0.026010     -0.128238      0.000000
    202 C3    c      -0.017351      0.000726     -0.014892      0.000000
    203 C3    c       0.024181      0.112120      0.004499      0.000000
    204 C3    c      -0.003743      0.007847     -0.018989      0.000000
    205 H4    c      -0.002470     -0.001550      0.015883      0.000000
    206 C3    c      -0.041180     -0.005158     -0.049618      0.000000
    207 H4    c      -0.000814     -0.025175      0.000804      0.000000
    208 C3    c      -0.032685      0.077803     -0.021635      0.000000
    209 C3    c       0.008937      0.008363      0.046650      0.000000
    210 H4    c       0.002062     -0.005581      0.005738      0.000000
    211 C3    c       0.027748     -0.090355     -0.019593      0.000000
    212 H4    c       0.004527      0.041771      0.015784      0.000000
    213 C3    c       0.003446     -0.127571      0.009384      0.000000
    214 O2    c      -0.010846      0.060846      0.021287      0.000000
    215 Zn1   c      -0.021935      0.000065      0.002056      0.000000
    216 O2    c      -0.022359      0.002614     -0.023168      0.000000
    217 C3    c      -0.017467      0.000121      0.035887      0.000000
    218 C3    c       0.017592     -0.017227     -0.059371      0.000000
    219 C3    c      -0.003784     -0.013403      0.110908      0.000000
    220 H4    c       0.062497     -0.000730      0.013746      0.000000
    221 C3    c      -0.070699     -0.008138     -0.007387      0.000000
    222 H4    c       0.047618      0.024647     -0.020981      0.000000
    223 C3    c      -0.000366     -0.057172     -0.012131      0.000000
    224 C3    c      -0.025827      0.048871      0.017617      0.000000
    225 H4    c      -0.000960      0.005778      0.024799      0.000000
    226 C3    c       0.003290     -0.001961     -0.054397      0.000000
    227 H4    c       0.015578      0.027647      0.002917      0.000000
    228 C3    c      -0.003882      0.052750      0.012715      0.000000
    229 O2    c      -0.003289      0.000705     -0.053811      0.000000
    230 O2    c       0.026674     -0.055436      0.017400      0.000000
    231 Zn1   c       0.003740      0.040535     -0.052452      0.000000
    232 O2    c      -0.027332     -0.020862      0.103323      0.000000
    233 C3    c       0.057922      0.023885     -0.005525      0.000000
    234 C3    c      -0.001069     -0.033506     -0.214101      0.000000
    235 C3    c       0.023232     -0.003499     -0.028771      0.000000
    236 H4    c      -0.038296      0.024690      0.012243      0.000000
    237 C3    c       0.000793      0.002982      0.191531      0.000000
    238 H4    c      -0.027616      0.040010      0.014360      0.000000
    239 C3    c      -0.010744     -0.020183      0.011149      0.000000
    240 C3    c       0.034110     -0.031476     -0.055507      0.000000
    241 H4    c       0.002674     -0.003242      0.012599      0.000000
    242 C3    c       0.039936     -0.005296      0.150098      0.000000
    243 H4    c       0.005465     -0.018229     -0.031832      0.000000
    244 C3    c      -0.019631     -0.000894      0.102273      0.000000
    245 O2    c       0.003706     -0.007079     -0.125994      0.000000
    246 Zn1   c      -0.005745     -0.030690     -0.015370      0.000000
    247 O2    c      -0.005312     -0.129809     -0.063118      0.000000
    248 C3    c      -0.061301      0.000535     -0.065232      0.000000
    249 C3    c       0.004303     -0.053763     -0.129974      0.000000
    250 C3    c      -0.003642      0.066968      0.091049      0.000000
    251 H4    c       0.000445     -0.007427      0.018913      0.000000
    252 C3    c      -0.044992     -0.159096     -0.204942      0.000000
    253 H4    c       0.022641      0.004627      0.017896      0.000000
    254 C3    c       0.022590      0.034297      0.054764      0.000000
    255 C3    c       0.081755      0.029754      0.006622      0.000000
    256 H4    c       0.000270      0.002077      0.031673      0.000000
    257 C3    c      -0.001320      0.055964      0.080137      0.000000
    258 H4    c      -0.009124      0.019664      0.023673      0.000000
    259 C3    c      -0.011051     -0.002199      0.038891      0.000000
    260 O2    c       0.005556      0.032937      0.015280      0.000000
    261 Zn1   c      -0.002418     -0.062637     -0.051274      0.000000
    262 O2    c      -0.030819     -0.027560     -0.118534      0.000000
    263 C3    c       0.002037      0.015712      0.174559      0.000000
    264 C3    c      -0.003137     -0.042567     -0.069998      0.000000
    265 C3    c      -0.000488      0.011887     -0.075030      0.000000
    266 H4    c      -0.011365      0.023514      0.034023      0.000000
    267 C3    c      -0.035381     -0.039983      0.110584      0.000000
    268 H4    c      -0.028477     -0.032413     -0.035086      0.000000
    269 C3    c       0.018493     -0.014480     -0.002933      0.000000
    270 C3    c       0.008639      0.086534     -0.047285      0.000000
    271 H4    c       0.005686      0.034330     -0.073348      0.000000
    272 C3    c       0.016713     -0.056064      0.126357      0.000000
    273 H4    c      -0.007918      0.001767     -0.051058      0.000000
    274 C3    c       0.002575      0.005033     -0.179355      0.000000
    275 O2    c      -0.001121     -0.034629      0.112210      0.000000
    276 Zn1   c      -0.008277      0.004179      0.025416      0.000000
    277 O2    c       0.005974      0.017653     -0.000520      0.000000
    278 C3    c      -0.020052      0.002765     -0.000500      0.000000
    279 C3    c      -0.124842     -0.056965     -0.041075      0.000000
    280 C3    c       0.028564      0.090451      0.052703      0.000000
    281 H4    c      -0.001641      0.011966      0.057550      0.000000
    282 C3    c      -0.025225     -0.000781      0.038816      0.000000
    283 H4    c       0.004294     -0.000956     -0.016775      0.000000
    284 C3    c      -0.040806     -0.186266      0.086726      0.000000
    285 C3    c       0.042888      0.175296     -0.040634      0.000000
    286 H4    c       0.066803     -0.025272      0.036327      0.000000
    287 C3    c       0.038339     -0.080855     -0.092345      0.000000
    288 H4    c       0.039525      0.025488     -0.005573      0.000000
    289 C3    c      -0.005584     -0.000196     -0.130988      0.000000
    290 O2    c       0.081768      0.050867      0.010033      0.000000
    291 O2    c      -0.069056      0.007705      0.077685      0.000000
    292 Zn1   c      -0.023613      0.082802      0.005424      0.000000
    293 O2    c      -0.007080     -0.005533      0.009239      0.000000
    294 O2    c       0.045467      0.015441     -0.016813      0.000000
    295 C3    c      -0.007783     -0.029864     -0.023168      0.000000
    296 C3    c       0.032023     -0.061755     -0.018721      0.000000
    297 C3    c      -0.013633      0.055131     -0.020044      0.000000
    298 H4    c      -0.010951      0.048727      0.000769      0.000000
    299 C3    c       0.008679      0.015597     -0.027091      0.000000
    300 H4    c       0.031157      0.022288     -0.012709      0.000000
    301 C3    c       0.084891     -0.020839     -0.015288      0.000000
    302 C3    c      -0.047077      0.010376      0.056663      0.000000
    303 H4    c       0.043155      0.021162      0.014414      0.000000
    304 C3    c       0.013779     -0.092179      0.011620      0.000000
    305 H4    c       0.016718      0.040789      0.011828      0.000000
    306 C3    c       0.020769      0.009376      0.097741      0.000000
    307 O2    c      -0.013247     -0.146637      0.061377      0.000000
    308 O2    c      -0.025949      0.101923     -0.201488      0.000000
    309 Zn1   c      -0.002750      0.008416      0.140115      0.000000
    310 O2    c      -0.016599      0.023474     -0.077685      0.000000
    311 O2    c      -0.053137      0.055968     -0.110681      0.000000
    312 C3    c      -0.059778     -0.093230     -0.001164      0.000000
    313 C3    c       0.081039      0.052213      0.070530      0.000000
    314 C3    c      -0.030322      0.051221      0.031315      0.000000
    315 H4    c       0.003700     -0.006790     -0.028309      0.000000
    316 C3    c       0.014337     -0.183078      0.015419      0.000000
    317 H4    c      -0.022832      0.027064     -0.032274      0.000000
    318 C3    c       0.059854      0.076565      0.073969      0.000000
    319 C3    c       0.020529     -0.104996      0.064615      0.000000
    320 H4    c      -0.008304     -0.003094     -0.039315      0.000000
    321 C3    c       0.014544     -0.019376      0.005331      0.000000
    322 H4    c      -0.008045     -0.008752     -0.004676      0.000000
    323 C3    c      -0.028603      0.082952     -0.115049      0.000000
    324 O2    c      -0.053840     -0.005284     -0.035661      0.000000
    325 Zn1   c      -0.006017      0.000726     -0.024384      0.000000
    326 O2    c       0.009958     -0.118375     -0.126705      0.000000
    327 C3    c       0.004252     -0.018173      0.016444      0.000000
    328 C3    c      -0.013795     -0.055994     -0.022563      0.000000
    329 C3    c      -0.014659     -0.005997     -0.011403      0.000000
    330 H4    c       0.031812      0.005369     -0.010148      0.000000
    331 C3    c      -0.047228      0.035370     -0.009581      0.000000
    332 H4    c      -0.004311     -0.002726      0.019624      0.000000
    333 C3    c       0.002559     -0.173232     -0.119842      0.000000
    334 C3    c      -0.025181      0.106551      0.029301      0.000000
    335 H4    c      -0.010055      0.014866      0.008895      0.000000
    336 C3    c       0.063359      0.036610      0.085818      0.000000
    337 H4    c      -0.012367      0.003418      0.000685      0.000000
    338 C3    c      -0.049221      0.135841     -0.005126      0.000000
    339 O2    c       0.101487     -0.110274     -0.036475      0.000000
    340 Zn1   c      -0.007178     -0.055332     -0.012230      0.000000
    341 O2    c      -0.001794      0.027610     -0.014029      0.000000
    342 C3    c      -0.002214      0.050089     -0.005631      0.000000
    343 C3    c       0.133767     -0.103561      0.003801      0.000000
    344 C3    c      -0.035888     -0.049529      0.009813      0.000000
    345 H4    c      -0.037350      0.008339      0.032023      0.000000
    346 C3    c       0.007173      0.021006     -0.016324      0.000000
    347 H4    c       0.002868      0.012187     -0.015091      0.000000
    348 C3    c      -0.022345      0.051585     -0.086332      0.000000
    349 C3    c      -0.063915      0.048917      0.096357      0.000000
    350 H4    c       0.034144     -0.084969     -0.081439      0.000000
    351 C3    c       0.018942      0.014424     -0.002155      0.000000
    352 H4    c      -0.002118     -0.011003      0.003562      0.000000
    353 C3    c      -0.047665     -0.042170      0.061801      0.000000
    354 O2    c       0.015473      0.001842     -0.089644      0.000000
    355 Zn1   c      -0.033161      0.001849      0.011921      0.000000
    356 O2    c       0.018164      0.025126      0.020152      0.000000
    357 O2    c       0.011955      0.027089      0.014188      0.000000
    358 O5    c      -0.007655     -0.004744      0.082881      0.000000
    359 Zn1   c      -0.008440     -0.039157     -0.045883      0.000000
    360 O2    c       0.009204      0.008957     -0.001530      0.000000
    361 O2    c       0.061448     -0.069231      0.055962      0.000000
    362 C3    c       0.006982      0.125819      0.043246      0.000000
    363 C3    c       0.027623     -0.040862     -0.011118      0.000000
    364 C3    c      -0.079185     -0.000546     -0.131311      0.000000
    365 H4    c      -0.015371      0.015203      0.040034      0.000000
    366 C3    c       0.012745      0.084144      0.019339      0.000000
    367 H4    c      -0.004861     -0.016891     -0.001837      0.000000
    368 C3    c       0.024540     -0.119530      0.008869      0.000000
    369 C3    c      -0.061727      0.016269      0.029152      0.000000
    370 H4    c      -0.038204      0.006719     -0.009830      0.000000
    371 C3    c       0.012155     -0.007518     -0.045066      0.000000
    372 H4    c       0.060586      0.056432      0.052140      0.000000
    373 C3    c      -0.012617      0.026705      0.097991      0.000000
    374 O2    c       0.068083      0.019886     -0.019469      0.000000
    375 Zn1   c      -0.055087     -0.005052      0.019896      0.000000
    376 O2    c      -0.064019      0.055191     -0.000110      0.000000
    377 O2    c      -0.000553      0.011625     -0.087572      0.000000
    378 O5    c      -0.003891     -0.006413     -0.048189      0.000000
    379 O2    c       0.019883      0.024089     -0.077424      0.000000
    380 O2    c       0.001472     -0.021317      0.001531      0.000000
    381 O2    c       0.015276     -0.136512      0.136923      0.000000
    382 O2    c      -0.001692      0.016341      0.027536      0.000000
    383 O2    c      -0.006181     -0.009046     -0.017772      0.000000
    384 O5    c      -0.040708     -0.027764     -0.028238      0.000000
    385 Zn1   c       0.092170      0.094187     -0.025656      0.000000
    386 O2    c       0.023435     -0.018013      0.044877      0.000000
    387 O2    c      -0.012725      0.046077      0.165231      0.000000
    388 O2    c      -0.000915      0.017893      0.112564      0.000000
    389 O2    c      -0.003526      0.134481      0.093411      0.000000
    390 Zn1   c       0.021586      0.025855      0.016743      0.000000
    391 O2    c       0.006487      0.051891      0.035976      0.000000
    392 O2    c      -0.044424     -0.008677     -0.034808      0.000000
    393 O5    c       0.018513     -0.036547     -0.017494      0.000000
    394 O2    c      -0.008873     -0.008035     -0.093174      0.000000
    395 O2    c       0.013574     -0.015134      0.046484      0.000000
    396 O2    c       0.066113      0.028745      0.001037      0.000000
    397 Zn1   c       0.024318      0.092389      0.010044      0.000000
    398 O2    c      -0.034568     -0.035291     -0.010639      0.000000
    399 O5    c      -0.013192     -0.048951     -0.012046      0.000000
    400 O2    c       0.029809      0.061572      0.058949      0.000000
    401 O2    c       0.000081     -0.052639      0.025619      0.000000
    402 Zn1   c      -0.001450     -0.021042      0.081414      0.000000
    403 O2    c       0.065032     -0.027050      0.045969      0.000000
    404 O2    c       0.125810      0.000490      0.108740      0.000000
    405 O5    c      -0.028936      0.005414     -0.003886      0.000000
    406 O2    c      -0.049744     -0.043964      0.000792      0.000000
    407 O2    c       0.034727      0.037567     -0.134857      0.000000
    408 O2    c      -0.041691      0.084461      0.143951      0.000000
    409 Zn1   c      -0.007933      0.015069     -0.065733      0.000000
    410 O2    c       0.083289      0.054147      0.055726      0.000000
    411 O2    c      -0.006120     -0.022079      0.073817      0.000000
    412 O5    c      -0.007594      0.013614      0.024821      0.000000
    413 O2    c       0.044279     -0.123867      0.008304      0.000000
    414 O2    c      -0.031939      0.024576     -0.048669      0.000000
    415 O2    c      -0.003000     -0.013158      0.158355      0.000000
    416 O2    c      -0.012698      0.001882     -0.000749      0.000000
    417 Zn1   c      -0.015075      0.028417      0.072153      0.000000
    418 O2    c      -0.052439     -0.001541     -0.008841      0.000000
    419 O2    c      -0.003008     -0.054149     -0.053946      0.000000
    420 O5    c      -0.005028     -0.055555     -0.038113      0.000000
    421 O2    c      -0.041028      0.015334      0.037794      0.000000
    422 O2    c      -0.007863      0.071313     -0.031448      0.000000
    423 O2    c       0.009539     -0.088296      0.045237      0.000000
    424 O2    c      -0.002744      0.001974     -0.041526      0.000000
--------------------------------------------------------------------------------
  Maximum abs         0.166305      0.186266      0.425604      0.000000
--------------------------------------------------------------------------------


  Time to end of optimisation =     145.5321 seconds


  Peak dynamic memory used =      35.98 MB 


  Timing analysis for GULP :

--------------------------------------------------------------------------------
  Task / Subroutine                                          Time (Seconds)
--------------------------------------------------------------------------------
  Calculation of real space energy and derivatives               18.5020
  Calculation of three-body energy and derivatives               18.1448
  Calculation of four-body energy and derivatives                 3.2972
  Calculation of molecules and connectivity                     102.4379
  Calculation and manipulation of Hessian matrix                  0.0061
  Calculation of matrix inversion                                 2.9731
--------------------------------------------------------------------------------
  Total CPU time                                                145.5321
--------------------------------------------------------------------------------


  CIF file written as EDUSIF.cif


  Job Finished at 21:35.59 12th March      2024                               

